LAMMPS data file via write_data, version 2 Aug 2023, timestep = 20000, units = lj

23359 atoms
1 atom types

-200 200 xlo xhi
-200 200 ylo yhi
-1 1 zlo zhi

Masses

1 1

Pair Coeffs # lj/cut

1 1 1

Atoms # atomic

22835 1 -199.52400667971736 198.72171794794338 0 0 0 0
14249 1 -193.8945654056925 -199.3039895111861 0 0 1 0
9737 1 -189.27238173929126 -199.5976683624718 0 0 1 0
527 1 -170.65790615840294 -199.59268056406245 0 0 0 0
2772 1 -170.7785926756228 199.2344537075188 0 0 0 0
12685 1 -153.8197672382979 -197.8043994252179 0 0 0 0
5742 1 -153.59150450548708 -199.4906921044916 0 0 1 0
11804 1 -150.3123031091582 -196.22950868261375 0 0 1 0
17828 1 -149.61969816280907 199.19795469812723 0 0 -1 0
11659 1 -148.64282360864118 -197.4451890514881 0 0 1 0
560 1 -147.05294877725925 199.91502361127812 0 0 -1 0
22510 1 -143.73585800853013 -198.13430692863182 0 0 1 0
3958 1 -142.00280060078677 -198.38842111395394 0 0 0 0
6724 1 -139.12331000916905 -199.6737019829059 0 0 1 0
4735 1 -136.44310739306496 198.76297083971133 0 0 -1 0
5694 1 -138.04796312724417 199.800989156433 0 0 0 0
14250 1 -133.86503652617716 199.88759966434867 0 0 -1 0
20595 1 -134.38237383039248 -198.89928273792992 0 0 0 0
8098 1 -122.61589795604614 198.48204764820744 0 0 -1 0
8554 1 -115.18821320804459 198.80191239628022 0 0 0 0
2507 1 -112.77337741585386 -198.79818383523352 0 0 1 0
19540 1 -108.92668525034023 198.9729422091104 0 0 -1 0
6520 1 -104.6629026793603 -198.03007699479664 0 0 0 0
15320 1 -99.61661768482139 -199.08631616086447 0 0 0 0
22328 1 -97.60770817863208 -198.89828850948595 0 0 0 0
4085 1 -87.14287654099273 -199.6602620275403 0 0 1 0
20434 1 -77.53713481635398 -199.14238867879706 0 0 0 0
12346 1 -67.49142769700494 -198.68708830645627 0 0 0 0
3151 1 -62.205289820610105 199.29103243963965 0 0 0 0
16103 1 -59.3986877051955 -199.39424089499886 0 0 1 0
15117 1 -46.167459885065945 198.02729655465146 0 0 0 0
12043 1 -42.530975420373366 -198.41961721114393 0 0 1 0
19495 1 -41.290939384603 -198.44114732115807 0 0 1 0
5480 1 -18.44633877940926 -198.81633532048403 0 0 0 0
21816 1 -9.222453859787008 -199.8025206923385 0 0 0 0
18623 1 -8.113378047731805 -199.52328446142994 0 0 1 0
12223 1 -4.633309238870114 -197.71535370932457 0 0 1 0
13261 1 -0.1216965860395113 198.84061607997089 0 0 -1 0
20415 1 1.738181611833261 -198.63497388933934 0 0 0 0
15232 1 10.113144545457475 199.63616108871219 0 0 0 0
1517 1 11.741415441268787 -199.63167953872588 0 0 1 0
2771 1 12.784872248177138 199.8467528523664 0 0 0 0
5615 1 15.70746372141101 -199.92831881573616 0 0 0 0
15387 1 20.990454871899605 199.0978873665792 0 0 0 0
1582 1 24.54065699222906 -199.154117732326 0 0 0 0
3757 1 24.975952904262655 -198.16912724334293 0 0 1 0
3229 1 28.306783618377764 -199.59243031704682 0 0 1 0
14654 1 38.347404825074285 -199.08246470447767 0 0 0 0
12185 1 40.091776338700186 -198.16890160241002 0 0 1 0
12173 1 40.5223830966121 199.77081518947654 0 0 0 0
11499 1 46.49849156259784 -199.53757505494582 0 0 0 0
9796 1 54.05915206150814 -199.83737291064438 0 0 0 0
15227 1 57.60447972536307 199.2215448251104 0 0 -1 0
2388 1 63.864526560516275 -199.36338642870678 0 0 0 0
22758 1 66.90678918524556 -197.91182763580767 0 0 0 0
15874 1 71.1213727419601 -199.24841995107823 0 0 0 0
10568 1 74.56297198869959 -198.77010729833123 0 0 1 0
580 1 75.70413704232938 -198.82543948227794 0 0 0 0
7634 1 81.3808739967985 -199.76621331486413 0 0 0 0
23010 1 86.93223322054193 -198.9955755145862 0 0 0 0
4936 1 93.96567000630886 -198.102787044643 0 0 0 0
19679 1 94.46459945368588 -199.24371172423437 0 0 1 0
5055 1 101.42941533426828 -199.0708861690353 0 0 1 0
16332 1 104.19694660701327 -199.1894922243969 0 0 0 0
23108 1 108.37793953929355 199.91048863269637 0 0 0 0
10680 1 119.69019538005062 -199.08508646670907 0 0 1 0
9639 1 120.94437469247123 -199.94775323761007 0 0 0 0
23113 1 130.11538710880143 -198.9523886437524 0 0 1 0
1805 1 132.4371162566797 199.98987145783352 0 0 0 0
157 1 138.85565290070014 -198.41129363358772 0 0 0 0
19045 1 140.2118558776167 -199.42549418772543 0 0 1 0
10204 1 153.44584729984675 198.7310419104846 0 0 -1 0
19963 1 153.6566028485611 -199.58120968312343 0 0 1 0
2660 1 155.58439062515174 -199.3790711301071 0 0 0 0
14934 1 160.81821137986338 199.4079590187511 0 0 0 0
6721 1 166.60673548704375 -198.4471241054818 0 0 0 0
5073 1 168.15130086352065 -199.01152536137477 0 0 1 0
7380 1 168.33553879420052 199.36753878519156 0 0 -1 0
16993 1 178.92333353826405 -199.81552489394656 0 0 0 0
7368 1 183.8824494932872 -199.84451624013326 0 0 0 0
16131 1 186.89170477955085 -197.462846451992 0 0 1 0
19441 1 197.081628664682 -198.75944986091582 0 0 0 0
7843 1 198.27994040564712 -198.68203172524605 0 0 0 0
7182 1 -199.48362818141237 -199.80077639610855 0 1 1 0
9749 1 -193.17747190405905 -198.09927216834717 0 0 0 0
5175 1 -183.8344912006948 -198.16645915506922 0 0 0 0
13502 1 -177.248114289977 -196.88835152513656 0 0 0 0
18765 1 -165.15411608219745 -197.0526952248602 0 0 0 0
9597 1 -163.98730113130796 -196.7723673668849 0 0 1 0
15502 1 -162.07168819322018 -198.45098186704666 0 0 0 0
18063 1 -159.6670426240732 -197.4250952444038 0 0 0 0
17559 1 -157.94192924881455 -196.07377025878745 0 0 0 0
1811 1 -156.35209621858988 -196.56271990265472 0 0 1 0
9956 1 -132.7060479632108 -199.18040170430058 0 0 0 0
13438 1 -125.87287398408185 -197.9015096461323 0 0 1 0
2565 1 -126.70889001025286 -199.00998990544113 0 0 1 0
6253 1 -119.34451444875047 -198.0186737550227 0 0 0 0
4510 1 -115.08262347244526 -197.2327115973656 0 0 0 0
20381 1 -114.13775406206268 -197.91802612978208 0 0 0 0
8797 1 -112.65165655262376 -197.5592639854085 0 0 0 0
10124 1 -110.23618698625187 -199.17818038266407 0 0 0 0
1495 1 -110.49533557638502 -196.9131031148831 0 0 0 0
6451 1 -108.14203044715275 -198.65221388979026 0 0 0 0
20741 1 -105.85772454346302 -199.85175810652424 0 0 1 0
10911 1 -101.1334682108639 -197.8528831476997 0 0 1 0
16950 1 -95.9206726138292 -197.92537050860747 0 0 1 0
10864 1 -90.58705959914494 -197.72639174886606 0 0 0 0
2802 1 -88.16322517539953 -196.52285699751093 0 0 0 0
11212 1 -83.86642083393595 -197.3180272225764 0 0 1 0
10967 1 -72.48805139889465 -197.9025601134413 0 0 0 0
5063 1 -68.7003392028403 -198.0629089565672 0 0 1 0
22707 1 -68.41428425443385 -196.788653887167 0 0 0 0
18845 1 -65.6105330403899 -198.46254979056025 0 0 0 0
7901 1 -62.59185477065872 -196.61582135416475 0 0 1 0
14164 1 -61.55100217064751 -197.5760918284584 0 0 0 0
14012 1 -57.19700113444352 -198.87775763684894 0 0 0 0
8931 1 -53.0372403191522 -197.9341407491242 0 0 0 0
4438 1 -49.66581532048545 -195.58080489199398 0 0 0 0
7197 1 -48.90019265135379 -197.95276006209846 0 0 0 0
3618 1 -34.25428379570814 -197.05575790611323 0 0 1 0
9374 1 -29.21454827216816 -199.16124845766794 0 0 1 0
18884 1 -28.116800223980324 -198.8973426535807 0 0 0 0
18414 1 -18.54565543106151 -197.1932989335654 0 0 0 0
21081 1 -16.561881829105857 -197.73444116175077 0 0 0 0
4799 1 -15.881337499029053 -198.53637319628464 0 0 0 0
4263 1 -14.6531569366358 -197.72312386368705 0 0 1 0
17749 1 -12.283006757885538 -196.74690571464424 0 0 0 0
8067 1 -10.61556848997151 -198.83486192030924 0 0 0 0
20040 1 -8.790313119518315 -198.5563722272159 0 0 0 0
4450 1 2.464400113853836 -197.4897149342827 0 0 0 0
6932 1 14.974551769215815 -197.64341396193979 0 0 0 0
21284 1 23.626095298171208 -198.6900039277929 0 0 0 0
8734 1 24.483345386461004 -196.93524995011643 0 0 0 0
12489 1 27.719807157087036 -197.9303982224199 0 0 1 0
5584 1 31.07743529817227 -199.69126868098903 0 0 0 0
4525 1 38.75062030648654 -198.07257848854738 0 0 0 0
1999 1 38.47298358139035 -196.6446201747006 0 0 0 0
1152 1 40.26129476214876 -196.9752791431646 0 0 0 0
22464 1 47.43520147788269 -198.09288899995582 0 0 0 0
2324 1 52.68670713110386 -198.48331316180304 0 0 0 0
20729 1 66.36273564823722 -198.92001566962819 0 0 0 0
1182 1 65.69146797943705 -198.07130306410403 0 0 1 0
5154 1 70.32758120848746 -197.8490394096469 0 0 1 0
261 1 73.28531502190292 -197.31425637480774 0 0 0 0
5045 1 81.89156444993417 -198.2359431245011 0 0 0 0
19220 1 86.82257247783724 -197.90081723398052 0 0 0 0
22031 1 89.06543668100042 -197.90792839553777 0 0 0 0
23165 1 96.1833839022467 -197.91137637244418 0 0 0 0
3425 1 100.34164818041512 -197.8372584607724 0 0 1 0
15504 1 107.78769365264505 -197.7921787836286 0 0 1 0
15214 1 118.5351377562624 199.71923206122742 0 0 -1 0
3602 1 119.36394876949504 -197.04114132268668 0 0 0 0
3791 1 120.77364221702084 -197.86861872601966 0 0 1 0
12031 1 121.64265054300867 -198.68612030074013 0 0 0 0
13922 1 127.52753366691618 -196.84403463552283 0 0 1 0
10718 1 128.7533289717098 -196.2927810234875 0 0 1 0
16040 1 131.47760426328378 -199.50280829490828 0 0 0 0
5036 1 134.67244046407086 -196.40330205964452 0 0 0 0
10 1 152.52342447641357 -199.19220697300963 0 0 0 0
1586 1 154.64753260091246 -198.91653828072867 0 0 1 0
19559 1 156.67913890293832 -199.54166503061512 0 0 1 0
9958 1 157.89481670974178 -197.64163897167055 0 0 0 0
14668 1 163.5548941670589 -197.9056523172418 0 0 0 0
612 1 173.93650097163118 -198.64743504851714 0 0 1 0
18842 1 176.54435587487967 -196.9141857527666 0 0 0 0
10898 1 194.01018836838833 -198.34483140950906 0 0 0 0
15828 1 -198.46082778333522 -196.43656850519378 0 1 0 0
419 1 -191.9537559004378 -195.9495250845929 0 0 0 0
6457 1 -172.7936910942628 -196.93966024589173 0 0 0 0
20165 1 -171.48528151935352 -197.51485252851526 0 0 0 0
15545 1 -169.85164227109198 -197.3456017441637 0 0 1 0
421 1 -163.63140235736802 -195.6826816906529 0 0 0 0
4333 1 -160.62961136473498 -196.19273192142697 0 0 1 0
19521 1 -151.55593854217017 -195.25592597695643 0 0 1 0
3919 1 -147.69988665329112 -196.9679734775984 0 0 0 0
2433 1 -142.81310363618528 -197.40268873637194 0 0 0 0
18999 1 -139.38102894840006 -196.87030145300048 0 0 1 0
8490 1 -127.56002057663606 -196.3960451318444 0 0 0 0
5467 1 -124.56821186801066 -197.8199834503008 0 0 0 0
19636 1 -122.13109142740831 -196.24996171831947 0 0 0 0
10165 1 -116.99993318682434 -195.43570409118863 0 0 0 0
2484 1 -110.30277473187299 -195.65880017939605 0 0 0 0
13246 1 -94.57687141334252 -197.35446942739074 0 0 1 0
10330 1 -89.81929912164539 -196.64355958135727 0 0 1 0
13908 1 -87.49273387445247 -198.66516242109648 0 0 0 0
23344 1 -81.41991571304769 -196.6792218823041 0 0 0 0
2141 1 -74.59198022294572 -197.7226715662487 0 0 0 0
42 1 -70.99029758200457 -196.47751442664136 0 0 0 0
22320 1 -73.40864245067688 -195.5557944234137 0 0 1 0
17780 1 -71.20992120776576 -197.59666356217073 0 0 0 0
9394 1 -63.32139432635163 -197.38104047013596 0 0 0 0
11966 1 -59.68607218727171 -198.29358152551922 0 0 1 0
13854 1 -58.21684390315401 -196.04263628668406 0 0 1 0
14278 1 -54.08058668121769 -196.21462601006803 0 0 0 0
15590 1 -51.76827218553576 -196.87786249476773 0 0 0 0
9545 1 -48.658973878364186 -196.90085463482416 0 0 0 0
11013 1 -44.6473316369298 -196.06580727643077 0 0 0 0
17294 1 -40.327909293104035 -198.12241439279603 0 0 0 0
18530 1 -39.48420588363097 -197.38272168781813 0 0 0 0
18671 1 -30.90203255171863 -195.78831612051454 0 0 1 0
16309 1 -13.89596879104053 -196.535453130403 0 0 0 0
21498 1 -9.224976882946661 -194.83431570460723 0 0 0 0
19401 1 3.7230177810878504 -195.89603967661293 0 0 1 0
19258 1 4.931996075225537 -195.35653935194196 0 0 0 0
20870 1 5.5800790887008915 -196.27144005928136 0 0 0 0
2031 1 10.284041673173906 -197.09793631685653 0 0 0 0
6686 1 14.47813193489287 -195.93365896443484 0 0 0 0
10729 1 16.239826773955322 -194.50520316583325 0 0 0 0
14299 1 18.053224075317925 -196.8148845651125 0 0 0 0
3089 1 35.99587574714919 -197.75173718612822 0 0 0 0
12886 1 41.154980058097266 -195.77175776879503 0 0 0 0
10236 1 48.13532789738885 -197.0717538009635 0 0 0 0
5531 1 52.255819432659884 -194.83017507582457 0 0 1 0
14897 1 52.95816888785447 -196.02952211834636 0 0 0 0
19122 1 58.087348453407394 -196.25884113682093 0 0 0 0
5558 1 62.749029122359374 -197.1140406550501 0 0 0 0
4892 1 69.31825756465668 -195.64401275569202 0 0 0 0
4160 1 75.13390824718317 -195.62162940508117 0 0 0 0
767 1 76.25960968379822 -195.81180880609895 0 0 0 0
11249 1 80.52827377857486 -196.45796501364538 0 0 0 0
14345 1 81.56400467060733 -194.24379727258005 0 0 0 0
2301 1 85.08148390339406 -197.43729973003187 0 0 0 0
18541 1 87.73417845886074 -196.99508294241465 0 0 0 0
14387 1 89.44290417192227 -195.60618054012747 0 0 0 0
6101 1 91.39704999387817 -196.7082745411338 0 0 0 0
21369 1 92.34752813724387 -195.45360956705994 0 0 0 0
18394 1 93.54440325408834 -195.45895969451772 0 0 0 0
19670 1 98.65113637714815 -197.49223535324188 0 0 0 0
6929 1 99.18488057016697 -194.8420827846767 0 0 0 0
9250 1 101.93581042082884 -195.63934143387362 0 0 0 0
12993 1 105.54312717381217 -195.80276610233224 0 0 0 0
21552 1 112.30392390785676 -196.3783377886084 0 0 0 0
7665 1 118.10013147930752 -197.4522745793277 0 0 0 0
19602 1 121.5420042856083 -196.87715182184337 0 0 0 0
5445 1 126.03899879570633 -195.24343321407832 0 0 0 0
13546 1 132.10934508264296 -198.55023697865536 0 0 0 0
3448 1 131.64491292231685 -197.6128402541933 0 0 0 0
19829 1 139.33524155471304 -195.73154503896484 0 0 0 0
2016 1 141.72500005758172 -196.4910342083543 0 0 1 0
14757 1 150.57533074470183 -194.91031373748513 0 0 1 0
9483 1 156.64759170431915 -196.719474018658 0 0 0 0
20219 1 156.9396269858728 -194.0187755013932 0 0 1 0
17189 1 162.5051951683654 -195.80480429962594 0 0 1 0
15330 1 163.24971194364605 -196.9086365295679 0 0 0 0
13018 1 164.2904777209876 -197.05392559519555 0 0 0 0
19483 1 165.46229865860215 -195.17531717232094 0 0 0 0
13199 1 164.86321153787677 -196.26459784624495 0 0 0 0
22799 1 171.54671839858668 -196.98019436444412 0 0 0 0
671 1 180.03402417728748 -195.58798777681847 0 0 0 0
3059 1 181.77992359932043 -197.76048652920028 0 0 0 0
2883 1 183.805604976154 -196.63237309231684 0 0 0 0
19609 1 184.6627181583433 -197.527525534358 0 0 0 0
13448 1 187.31761982527507 -196.36076547456523 0 0 0 0
5892 1 193.310222539744 -197.2814923616099 0 0 1 0
1000 1 195.75365431561224 -194.10066875482437 0 0 0 0
18220 1 -196.62386258261503 -194.00126921784724 0 0 0 0
16597 1 -190.55974268462307 -194.06154155031285 0 0 0 0
18547 1 -184.8907896805535 -195.49176799610333 0 0 0 0
20903 1 -181.5517633259286 -195.55520933697224 0 0 0 0
15526 1 -179.38298524310696 -195.3498978302634 0 0 0 0
9349 1 -175.61042692113722 -195.2365903201293 0 0 0 0
2719 1 -173.3732641691465 -194.3846235423331 0 0 0 0
636 1 -168.9473629986352 -193.549610788233 0 0 0 0
9818 1 -166.64994955465994 -194.65287297365563 0 0 0 0
3864 1 -163.5454968659598 -193.3832435033411 0 0 0 0
14406 1 -159.90834432070156 -192.17215107925608 0 0 0 0
21320 1 -159.4341027184884 -196.3856118352222 0 0 0 0
14917 1 -155.14574894952776 -195.75968220426142 0 0 0 0
2508 1 -146.65876242350066 -194.07842497672053 0 0 1 0
21027 1 -143.19546258184633 -192.45885327617572 0 0 0 0
20212 1 -138.99882003484015 -195.15846256102685 0 0 0 0
22570 1 -138.10386024938222 -193.69183107435651 0 0 0 0
20329 1 -134.77549631670493 -194.4305171084739 0 0 0 0
14960 1 -130.6198935278166 -194.68630240830572 0 0 0 0
7561 1 -124.2685991134367 -194.6843466772412 0 0 0 0
5935 1 -113.23323741890957 -195.65289240984617 0 0 0 0
11494 1 -105.80187290697152 -195.042069752052 0 0 0 0
7683 1 -101.05292797547378 -195.7781126718155 0 0 0 0
18042 1 -99.69319760710302 -196.29189172750426 0 0 0 0
22307 1 -96.18399264603588 -194.82966156800174 0 0 0 0
948 1 -90.98808209120145 -195.65558278259584 0 0 0 0
8527 1 -93.30600178841163 -195.77218325623426 0 0 0 0
8474 1 -90.5080469994628 -193.15015243944853 0 0 0 0
21927 1 -74.27779236296928 -196.05322066793764 0 0 0 0
21593 1 -72.55780064108691 -193.90126097379436 0 0 1 0
20563 1 -67.18468239226716 -193.7708511191037 0 0 0 0
9519 1 -63.16750076217414 -194.70837115723512 0 0 0 0
19340 1 -59.284645805079556 -195.66183732712136 0 0 0 0
2829 1 -57.68568167384599 -194.3844179604535 0 0 0 0
11016 1 -56.74083163277556 -195.79330609240404 0 0 0 0
18486 1 -55.05840857058144 -197.06438392189423 0 0 1 0
19040 1 -38.641263084485 -196.476158447507 0 0 0 0
5864 1 -36.89446012674118 -196.4853185761973 0 0 0 0
11125 1 -34.70549958700016 -195.83781270321407 0 0 0 0
13636 1 -24.418036271604784 -194.6348956713248 0 0 0 0
4339 1 -21.1582164056347 -194.29544907365897 0 0 0 0
18327 1 -18.366865878632435 -193.0657732796315 0 0 0 0
9783 1 -14.91089089880073 -195.38269716931225 0 0 1 0
23198 1 -12.720152949935038 -195.78255767660536 0 0 0 0
10950 1 -5.615207322872746 -195.40952064071377 0 0 0 0
3424 1 -4.088259163410013 -195.51128577306417 0 0 0 0
12703 1 5.012170334535516 -194.2839567120692 0 0 0 0
2147 1 6.60224309645987 -193.8000072134278 0 0 0 0
16433 1 30.72731666942451 -196.27539790922523 0 0 0 0
5651 1 30.400690268639465 -194.7814941050045 0 0 0 0
20475 1 35.48420144797845 -195.63288505381752 0 0 0 0
19435 1 35.24413463651951 -193.80060767072675 0 0 1 0
13202 1 42.34697485762673 -193.75063092848944 0 0 0 0
1129 1 49.21719304511697 -196.74356319589842 0 0 0 0
13598 1 50.63534613172988 -197.0424447986059 0 0 0 0
18355 1 50.95670837508113 -194.1177116076109 0 0 0 0
19047 1 53.826993661681705 -195.24394235944942 0 0 0 0
19517 1 52.14657266183885 -193.785055266414 0 0 0 0
17883 1 54.88612037384732 -195.129663619359 0 0 1 0
2359 1 56.879443487034735 -195.2731127954453 0 0 0 0
19200 1 73.40180094140528 -194.0495001831795 0 0 1 0
16771 1 77.22587170653695 -194.81683746475346 0 0 0 0
23094 1 79.40893791560956 -195.66912105110933 0 0 0 0
7053 1 83.06476508002473 -193.15579262090137 0 0 0 0
13607 1 88.92445824204371 -196.63173103304615 0 0 0 0
22925 1 90.36682436253817 -194.9860194578402 0 0 0 0
6675 1 98.13943100417059 -195.18015178799638 0 0 0 0
21422 1 108.57293003847121 -196.9389857546855 0 0 1 0
1302 1 117.18481436463837 -196.44887595408528 0 0 0 0
358 1 120.10303168007663 -195.44888893591397 0 0 0 0
2336 1 126.53873976464843 -193.83250333202147 0 0 0 0
4087 1 132.29345352235603 -196.0421995208014 0 0 0 0
20912 1 134.96439946817313 -195.273628704696 0 0 0 0
6477 1 136.7868371620037 -196.41588770629508 0 0 0 0
7191 1 139.99358047742393 -194.0473278768682 0 0 0 0
19202 1 141.53577237406108 -195.3221199297683 0 0 0 0
6147 1 147.65699031975734 -195.16752110046852 0 0 0 0
13844 1 157.64741830135588 -193.18819684343728 0 0 0 0
10464 1 159.73353729535572 -195.24406126572077 0 0 1 0
18324 1 166.73430989086816 -195.815996728457 0 0 0 0
147 1 167.89062838402612 -193.46952042986803 0 0 0 0
18045 1 173.3232312943593 -196.22868208400433 0 0 0 0
9879 1 174.3988943852887 -196.36764860226387 0 0 0 0
15688 1 179.9145238308439 -194.41139455108217 0 0 0 0
20133 1 181.2065539277992 -196.0576072092349 0 0 1 0
7705 1 181.0512507944101 -194.87744417338175 0 0 0 0
6625 1 182.25602716930553 -195.1451464207446 0 0 0 0
16151 1 185.95242107357106 -194.29838702211438 0 0 0 0
17664 1 189.9961493399005 -197.5916784005192 0 0 0 0
1841 1 -196.35996795067433 -192.63235384274057 0 0 0 0
14933 1 -194.53932054305795 -193.75083503143668 0 0 0 0
3393 1 -184.25767049892738 -192.44880677686007 0 0 0 0
4586 1 -176.85921529702378 -194.71398007982864 0 0 0 0
2760 1 -174.19344092514268 -193.79339769227718 0 0 0 0
12451 1 -169.52718105908204 -195.23734358496256 0 0 0 0
20899 1 -165.95607597370628 -193.57695422595688 0 0 0 0
17215 1 -152.92982002652187 -192.84806583846836 0 0 0 0
12407 1 -151.71882849405023 -192.43465475005686 0 0 0 0
7442 1 -150.49340643502867 -194.83211459728207 0 0 0 0
14393 1 -148.02892788970098 -192.57265569012566 0 0 0 0
15890 1 -145.87254602144452 -193.208742749602 0 0 0 0
22739 1 -136.12430230356466 -195.6638066420684 0 0 0 0
8465 1 -131.2645510228131 -193.40448698926895 0 0 0 0
3289 1 -129.17853579667857 -193.25924878629243 0 0 0 0
12747 1 -124.98896640426103 -193.7731025637925 0 0 0 0
9999 1 -123.84342601331636 -193.50989007181218 0 0 0 0
12399 1 -123.31069311754811 -195.42693181751122 0 0 0 0
615 1 -121.49184104225684 -192.83511044411176 0 0 0 0
7842 1 -104.99762516772282 -192.8916516827223 0 0 0 0
12228 1 -102.7472160263888 -193.9348169891123 0 0 0 0
12200 1 -99.0303619798755 -194.96921857936593 0 0 0 0
15144 1 -97.33936195182334 -194.30863562352897 0 0 0 0
17301 1 -96.58976549882561 -193.2969728311793 0 0 0 0
10855 1 -84.74729571926268 -193.6462989058048 0 0 0 0
14317 1 -78.82046113996864 -191.97290833233671 0 0 0 0
8903 1 -63.17772833593632 -193.52748370990642 0 0 0 0
5860 1 -62.20355753879646 -193.7506151264967 0 0 0 0
7244 1 -53.621291686161335 -194.5940577648991 0 0 0 0
15208 1 -45.30659824246373 -196.92141259090326 0 0 0 0
1522 1 -42.88589767237092 -192.63238023465763 0 0 0 0
15453 1 -35.04200932833714 -193.8299062309643 0 0 0 0
14172 1 -32.4811430235297 -192.74691099900866 0 0 0 0
7844 1 -14.024755052478696 -194.43208388242633 0 0 0 0
16934 1 -10.743869094426735 -193.36191746397137 0 0 0 0
4449 1 -7.946419336527431 -193.08155924856374 0 0 0 0
4365 1 2.823007904069995 -194.9395817312445 0 0 1 0
11595 1 2.2623703005085742 -192.9675001120564 0 0 0 0
10450 1 13.92068877720905 -193.4230534675822 0 0 0 0
17331 1 14.993746992107994 -192.30442899276557 0 0 0 0
17360 1 23.14055770113216 -192.48695229094952 0 0 0 0
9806 1 29.8986969029528 -193.31501035691267 0 0 0 0
2211 1 34.24401372359591 -193.1499939753174 0 0 0 0
9863 1 38.899601574273504 -192.98144684292973 0 0 0 0
5950 1 46.342288488383936 -194.2922085389725 0 0 0 0
5975 1 47.38417043076237 -195.00125977544513 0 0 0 0
13709 1 56.31956568023364 -194.2897089161096 0 0 0 0
21976 1 56.791261595451154 -193.34293193998747 0 0 0 0
9589 1 61.46298703943184 -195.10705039100725 0 0 0 0
17850 1 76.30538311196841 -193.59598008373584 0 0 0 0
139 1 79.49516536782207 -193.76808691759717 0 0 0 0
5959 1 85.25521793787448 -194.27612083992602 0 0 0 0
673 1 106.33147912994473 -194.42288184051222 0 0 0 0
13375 1 125.1688897290979 -193.9746273441992 0 0 0 0
15287 1 127.69078155645876 -193.65303983731164 0 0 0 0
4111 1 137.2289205352788 -193.59044746020447 0 0 0 0
3663 1 138.74299763477543 -193.0782743346186 0 0 0 0
11511 1 159.9731318922991 -192.37988878278904 0 0 0 0
15759 1 158.7140855019907 -194.2839896216842 0 0 0 0
575 1 162.2169613182713 -193.68157042416885 0 0 0 0
16448 1 161.37705360837222 -194.96345769445017 0 0 0 0
18810 1 164.0288551100328 -194.8769629492368 0 0 0 0
6757 1 169.33466877275117 -192.85645999255968 0 0 0 0
22210 1 167.77275183033345 -192.11011932577438 0 0 0 0
21274 1 175.19381335366904 -195.37000016156017 0 0 0 0
5929 1 178.18148844677808 -194.5580364026013 0 0 0 0
731 1 186.19368360772665 -192.20059538072465 0 0 0 0
14209 1 193.31772448364268 -193.82029850141848 0 0 0 0
22519 1 193.03055352581723 -192.29936668940996 0 0 0 0
17108 1 -193.74450601745625 -192.60670912985418 0 0 0 0
1720 1 -185.42550169593304 -192.15179106181685 0 0 1 0
19430 1 -185.3843119282047 -191.08175050522954 0 0 0 0
20346 1 -181.311583552286 -193.66099217608902 0 0 0 0
6444 1 -179.9788119461148 -191.72828241178684 0 0 0 0
1286 1 -178.020904625829 -194.0595170808742 0 0 0 0
21780 1 -171.8210776064921 -193.40810499198068 0 0 0 0
11637 1 -168.12728339421602 -192.6753419528951 0 0 0 0
21810 1 -169.11855337835541 -190.18158244564935 0 0 0 0
10019 1 -167.36670842335235 -193.661269260522 0 0 0 0
18044 1 -161.7680704516404 -193.3295251394803 0 0 0 0
11905 1 -158.44644359070418 -192.05293611687546 0 0 0 0
19752 1 -156.16188923099227 -190.55303883399478 0 0 0 0
7045 1 -155.95852019817016 -193.49498853403006 0 0 1 0
3464 1 -146.39219464805015 -191.88243489884147 0 0 0 0
9428 1 -141.16405379364502 -190.64709980293526 0 0 0 0
3285 1 -141.34913888379106 -191.95304473473715 0 0 0 0
4414 1 -124.77318044568844 -192.51810664803315 0 0 0 0
6480 1 -121.92854330665809 -191.77929835333268 0 0 1 0
10459 1 -111.73649009650676 -193.01209246490626 0 0 0 0
15199 1 -109.02996740127728 -190.24611117559596 0 0 0 0
6584 1 -101.05087833643874 -191.34276452601395 0 0 0 0
15739 1 -94.17486199393234 -193.28564008858694 0 0 0 0
14214 1 -93.48618239198032 -191.8489563107526 0 0 0 0
1011 1 -91.03906105857192 -191.2079590570586 0 0 0 0
7281 1 -84.69631911214482 -192.0338090512807 0 0 0 0
19561 1 -79.65343351216167 -192.71205610442848 0 0 0 0
12366 1 -75.86385861169593 -193.51964986295823 0 0 0 0
4869 1 -74.22217538392101 -192.27156567477567 0 0 0 0
4188 1 -62.4997015876401 -192.14295397779043 0 0 0 0
9877 1 -59.06820531705278 -192.6822651058792 0 0 0 0
10604 1 -52.309617027052546 -191.5857123251006 0 0 0 0
2621 1 -32.48146894939322 -191.20202968081085 0 0 0 0
1139 1 -28.529446314250798 -191.42064117443346 0 0 0 0
14818 1 -21.148062574773757 -191.25075437968243 0 0 0 0
2124 1 -11.882088799863565 -194.7470994583633 0 0 0 0
14336 1 3.249982729611805 -192.48167978723103 0 0 0 0
1406 1 5.465006273144723 -193.13840474102116 0 0 0 0
9043 1 5.080304860815237 -191.55519482454625 0 0 0 0
8980 1 13.815199979323804 -192.371150165349 0 0 0 0
11217 1 19.946574135234954 -192.24947783510103 0 0 0 0
12523 1 25.50621969032989 -191.51891916193097 0 0 0 0
5961 1 32.136701730108555 -192.00444612867167 0 0 0 0
3454 1 55.75077415140558 -192.63004594285314 0 0 0 0
977 1 70.21510479568734 -189.44758210321172 0 0 0 0
3211 1 73.9611286456395 -192.29795453719407 0 0 0 0
21501 1 83.76761184730684 -191.73259487040295 0 0 0 0
18111 1 94.84646841265743 -190.95133077458516 0 0 0 0
10071 1 97.3368973869787 -193.95413055109825 0 0 0 0
15671 1 103.42405232917991 -192.5906059644461 0 0 0 0
20545 1 107.74651751952224 -193.42046483036393 0 0 0 0
16625 1 112.02375366507293 -191.45305243978189 0 0 0 0
4328 1 114.45384690594605 -191.04029949384 0 0 0 0
7986 1 115.23784423603713 -193.509005054433 0 0 0 0
1846 1 119.50184119196379 -191.9400887979129 0 0 0 0
20565 1 128.52081099093664 -192.55248532409647 0 0 0 0
9469 1 129.5234167899301 -192.79818470213468 0 0 0 0
13165 1 144.1619942704097 -192.9334341928221 0 0 0 0
18519 1 150.51548835327102 -193.505945173925 0 0 0 0
21649 1 156.25128619375258 -192.2208238488253 0 0 0 0
2687 1 158.5672584775121 -192.44002615160676 0 0 0 0
4508 1 161.25361875992107 -192.60090480525682 0 0 0 0
7490 1 168.40390814661728 -190.98479611537905 0 0 0 0
4872 1 170.0769415853052 -190.70367714523954 0 0 0 0
18816 1 170.68925868058835 -192.24596517920784 0 0 0 0
5413 1 181.36536802660856 -191.13424100700487 0 0 1 0
22638 1 184.08123381941115 -191.26003548878057 0 0 0 0
6873 1 189.0080425359104 -192.6008883837165 0 0 0 0
8941 1 -197.9162202292074 -190.98800439940544 0 0 0 0
18178 1 -187.72703370082712 -189.51092667515758 0 0 0 0
10348 1 -187.6896756854431 -191.1928989871586 0 0 0 0
8506 1 -183.0214142123985 -192.6172405293732 0 0 0 0
12032 1 -178.00309076193034 -190.11812430830255 0 0 0 0
6810 1 -177.73977664677312 -191.49262673049594 0 0 0 0
6395 1 -173.35914632565965 -192.7796344105715 0 0 0 0
21155 1 -172.52868596387137 -190.146791210006 0 0 0 0
18004 1 -170.9337811037993 -191.93816148026315 0 0 0 0
6005 1 -160.23251118144375 -190.99674518779653 0 0 0 0
12405 1 -155.13263726600263 -191.0966659620527 0 0 0 0
5421 1 -154.6204206486444 -189.65534262285368 0 0 0 0
10756 1 -153.16458798313528 -190.0031005530225 0 0 0 0
2092 1 -151.24842445926822 -191.16303144903145 0 0 0 0
22876 1 -146.60365192962357 -190.04827921681147 0 0 0 0
7557 1 -145.68170888987942 -190.9718895834103 0 0 0 0
2775 1 -144.7804052739787 -191.8216084545366 0 0 0 0
22396 1 -135.24198109986733 -192.00117489280447 0 0 0 0
4977 1 -130.8445093861801 -190.88475135033556 0 0 0 0
16544 1 -123.90847057561338 -191.5438795109357 0 0 0 0
7122 1 -120.41376019899207 -189.53138332301785 0 0 0 0
7421 1 -114.14183288540458 -191.52691448764574 0 0 0 0
15776 1 -113.52491356305276 -190.15618464047978 0 0 0 0
22297 1 -95.99960627385632 -189.9516236735182 0 0 0 0
8724 1 -95.312837804098 -191.83481908997263 0 0 0 0
22952 1 -94.15146625675114 -189.83707878262692 0 0 0 0
12349 1 -92.08719518736461 -191.53118548576728 0 0 0 0
5786 1 -87.91385452202255 -191.33675231875964 0 0 0 0
5495 1 -87.10598213027319 -190.31087310625597 0 0 0 0
14314 1 -78.06847579051049 -191.08771776432457 0 0 0 0
3343 1 -73.99270250768365 -190.9088367239006 0 0 0 0
21926 1 -63.61054661475057 -192.54749668440576 0 0 0 0
8868 1 -63.718240430223894 -191.01025689602366 0 0 0 0
1850 1 -62.94937402828787 -189.69769898788314 0 0 0 0
22005 1 -62.497841535439626 -190.85812928442854 0 0 0 0
15248 1 -58.20180402698661 -189.47484659976737 0 0 0 0
8548 1 -52.592405842575545 -190.43650474015828 0 0 0 0
19489 1 -51.493697191427906 -190.41099290852833 0 0 0 0
8298 1 -40.51801467678105 -189.8026416263912 0 0 0 0
18157 1 -37.335977435324544 -190.59169622292538 0 0 0 0
16661 1 -35.9446135344638 -190.11765939892962 0 0 0 0
738 1 -30.840366192369682 -190.2042483946388 0 0 0 0
15620 1 -31.043123695991778 -192.02366835912838 0 0 0 0
7388 1 -19.286960337230692 -190.55622361043896 0 0 0 0
12883 1 -19.39247504410581 -189.2451748650063 0 0 0 0
1238 1 -16.842560300786396 -191.27825337803745 0 0 0 0
4005 1 -13.636653347177598 -191.2876362265018 0 0 0 0
10701 1 -4.838663557862929 -190.67823722151206 0 0 0 0
2755 1 4.040044240803329 -191.34318217232948 0 0 0 0
22694 1 5.519205315564631 -189.28767840114617 0 0 0 0
14675 1 7.7031026666108415 -190.80495402605882 0 0 0 0
12890 1 12.51916424180646 -190.73395772797568 0 0 0 0
23268 1 17.190995393334724 -190.29422040464559 0 0 0 0
2483 1 24.03720277710728 -191.21858724611587 0 0 0 0
15449 1 27.139443240426278 -189.37053304142702 0 0 0 0
21557 1 29.45589246806945 -189.95207348190857 0 0 0 0
21449 1 33.89064122103328 -190.3897565660656 0 0 0 0
4119 1 35.95052527710471 -189.70685162206027 0 0 0 0
2581 1 54.25832649111793 -191.0311280845246 0 0 0 0
19229 1 56.00145948395514 -191.32755749029795 0 0 0 0
8076 1 57.618539283040406 -190.9525342775758 0 0 0 0
2193 1 64.4298806662696 -191.71802067923443 0 0 0 0
20034 1 66.94598029935084 -190.53017627252643 0 0 0 0
16710 1 69.39447355581464 -190.3813053883668 0 0 0 0
3206 1 74.49490930078237 -190.0096836261929 0 0 0 0
1325 1 82.87181588449796 -191.13719609820748 0 0 0 0
8089 1 86.39499580782332 -190.3237387808675 0 0 0 0
10672 1 93.50365444001702 -189.43395990683234 0 0 0 0
14986 1 103.47272981325823 -191.49487586466412 0 0 0 0