ITEM: TIMESTEP
0
ITEM: NUMBER OF ATOMS
100
ITEM: BOX BOUNDS pp pp pp
-5.0000000000000000e+01 5.0000000000000000e+01
-5.0000000000000000e+01 5.0000000000000000e+01
-1.0000000000000000e+00 1.0000000000000000e+00
ITEM: ATOMS id type xs ys zs
80 1 0.380531 0.0203953 0.5
100 1 0.903841 0.0216458 0.5
89 1 0.950476 0.0144036 0.5
54 1 0.412872 0.0297305 0.5
16 1 0.231197 0.0659036 0.5
34 1 0.641687 0.0625744 0.5
51 1 0.653662 0.0588489 0.5
20 1 0.852324 0.0744881 0.5
43 1 0.133546 0.0933124 0.5
70 1 0.547352 0.147178 0.5
29 1 0.638571 0.151214 0.5
94 1 0.256321 0.169 0.5
7 1 0.0696459 0.180125 0.5
62 1 0.437175 0.196448 0.5
71 1 0.645683 0.186332 0.5
46 1 0.931359 0.197064 0.5
21 1 0.992773 0.18877 0.5
91 1 0.24327 0.199249 0.5
38 1 0.446729 0.200623 0.5
8 1 0.284048 0.233229 0.5
93 1 0.374597 0.229462 0.5
33 1 0.479128 0.227793 0.5
18 1 0.311371 0.246063 0.5
15 1 0.48584 0.262682 0.5
57 1 0.70355 0.276544 0.5
11 1 0.290337 0.29205 0.5
47 1 0.379706 0.295281 0.5
66 1 0.0638456 0.299931 0.5
55 1 0.931973 0.304106 0.5
79 1 0.149688 0.319649 0.5
72 1 0.23093 0.316699 0.5
50 1 0.683894 0.313201 0.5
32 1 0.252009 0.32805 0.5
5 1 0.49156 0.331339 0.5
61 1 0.994048 0.332907 0.5
67 1 0.51087 0.344518 0.5
59 1 0.831829 0.339514 0.5
52 1 0.918014 0.357492 0.5
12 1 0.0976896 0.37029 0.5
87 1 0.247047 0.376651 0.5
73 1 0.426105 0.374956 0.5
76 1 0.344054 0.389687 0.5
17 1 0.0212259 0.39684 0.5
74 1 0.98913 0.39852 0.5
84 1 0.110114 0.421214 0.5
36 1 0.17642 0.461966 0.5
68 1 0.710378 0.467788 0.5
31 1 0.822609 0.478352 0.5
88 1 0.630327 0.479539 0.5
49 1 0.636001 0.489364 0.5
1 1 0.871753 0.485549 0.5
56 1 0.193422 0.501762 0.5
24 1 0.534883 0.49375 0.5
4 1 0.180113 0.50986 0.5
83 1 0.402712 0.50847 0.5
97 1 0.183164 0.525572 0.5
69 1 0.578097 0.521549 0.5
95 1 0.706995 0.522669 0.5
78 1 0.0437171 0.563692 0.5
98 1 0.0181368 0.580757 0.5
45 1 0.0134579 0.593789 0.5
35 1 0.914428 0.617776 0.5
40 1 0.0560819 0.623873 0.5
44 1 0.0863698 0.622059 0.5
41 1 0.807635 0.620978 0.5
75 1 0.00732972 0.647031 0.5
82 1 0.108351 0.640056 0.5
42 1 0.930289 0.645834 0.5
27 1 0.623201 0.662938 0.5
9 1 0.805587 0.670862 0.5
63 1 0.21634 0.681582 0.5
26 1 0.599962 0.685511 0.5
86 1 0.0866395 0.692778 0.5
81 1 0.32412 0.705296 0.5
58 1 0.0440603 0.732157 0.5
60 1 0.0849633 0.720118 0.5
53 1 0.193981 0.7197 0.5
90 1 0.702727 0.723843 0.5
48 1 0.864379 0.723901 0.5
99 1 0.583361 0.795919 0.5
6 1 0.77211 0.793429 0.5
13 1 0.032216 0.84734 0.5
23 1 0.18277 0.847662 0.5
96 1 0.579191 0.863719 0.5
28 1 0.848245 0.871409 0.5
2 1 0.601648 0.88291 0.5
77 1 0.26908 0.891541 0.5
37 1 0.327574 0.932425 0.5
30 1 0.182999 0.951582 0.5
19 1 0.313412 0.956423 0.5
64 1 0.712614 0.953343 0.5
10 1 0.93442 0.950249 0.5
65 1 0.141043 0.970094 0.5
39 1 0.292479 0.965217 0.5
14 1 0.545133 0.967624 0.5
3 1 0.551779 0.959357 0.5
92 1 0.985021 0.966055 0.5
22 1 0.167551 0.977575 0.5
85 1 0.0133351 0.992028 0.5
25 1 0.206308 0.990242 0.5
ITEM: TIMESTEP
5000
ITEM: NUMBER OF ATOMS
100
ITEM: BOX BOUNDS pp pp pp
-5.0000000000000000e+01 5.0000000000000000e+01
-5.0000000000000000e+01 5.0000000000000000e+01
-1.0000000000000000e+00 1.0000000000000000e+00
ITEM: ATOMS id type xs ys zs
19 1 0.31597 0.99403 0.5
16 1 0.242496 0.0118691 0.5
80 1 0.327341 0.00885467 0.5
54 1 0.382912 0.015172 0.5
100 1 0.887006 0.0336475 0.5
85 1 0.0132952 0.0408572 0.5
51 1 0.663828 0.0423547 0.5
20 1 0.89938 0.0502252 0.5
43 1 0.0820839 0.0703728 0.5
34 1 0.64315 0.0609109 0.5
70 1 0.573948 0.148264 0.5
94 1 0.2342 0.161417 0.5
29 1 0.648474 0.1603 0.5
71 1 0.625877 0.182567 0.5
91 1 0.222817 0.177429 0.5
62 1 0.479669 0.182941 0.5
46 1 0.906915 0.199871 0.5
21 1 0.969223 0.188137 0.5
7 1 0.0679026 0.218656 0.5
93 1 0.334526 0.233732 0.5
38 1 0.468342 0.217762 0.5
8 1 0.319776 0.242231 0.5
18 1 0.312537 0.252766 0.5
57 1 0.709702 0.255451 0.5
33 1 0.451818 0.271951 0.5
15 1 0.463406 0.272676 0.5
72 1 0.279731 0.284301 0.5
47 1 0.417051 0.284169 0.5
11 1 0.285934 0.315486 0.5
55 1 0.933187 0.307822 0.5
66 1 0.0624663 0.302896 0.5
67 1 0.509956 0.313125 0.5
5 1 0.519896 0.317569 0.5
61 1 0.00136538 0.350509 0.5
79 1 0.166186 0.324184 0.5
32 1 0.248646 0.333888 0.5
50 1 0.676958 0.321065 0.5
73 1 0.422282 0.335183 0.5
59 1 0.843354 0.336312 0.5
17 1 0.0142986 0.368986 0.5
76 1 0.361529 0.347445 0.5
12 1 0.101804 0.374401 0.5
87 1 0.233635 0.368647 0.5
74 1 0.975345 0.381633 0.5
52 1 0.910319 0.400856 0.5
84 1 0.0947444 0.427425 0.5
49 1 0.643662 0.451541 0.5
24 1 0.567606 0.445112 0.5
68 1 0.717815 0.462303 0.5
36 1 0.166787 0.505996 0.5
56 1 0.225854 0.495441 0.5
69 1 0.5579 0.496996 0.5
88 1 0.647118 0.480056 0.5
1 1 0.90039 0.496519 0.5
4 1 0.128651 0.504853 0.5
31 1 0.833564 0.527909 0.5
83 1 0.416535 0.534467 0.5
95 1 0.698734 0.528122 0.5
78 1 0.0374479 0.554269 0.5
97 1 0.182712 0.562206 0.5
45 1 0.0322208 0.575508 0.5
98 1 0.0251916 0.594623 0.5
44 1 0.118816 0.617496 0.5
42 1 0.928788 0.600117 0.5
40 1 0.0646258 0.602964 0.5
41 1 0.858253 0.626419 0.5
35 1 0.903615 0.631622 0.5
82 1 0.103325 0.643158 0.5
63 1 0.202823 0.634303 0.5
27 1 0.630476 0.665193 0.5
75 1 0.987655 0.663221 0.5
26 1 0.621486 0.695789 0.5
9 1 0.789218 0.678648 0.5
58 1 0.0423089 0.707638 0.5
60 1 0.0875541 0.719441 0.5
86 1 0.083896 0.70627 0.5
53 1 0.192239 0.723229 0.5
81 1 0.307713 0.708275 0.5
90 1 0.691153 0.721001 0.5
48 1 0.858674 0.758749 0.5
99 1 0.605984 0.80696 0.5
6 1 0.764817 0.812545 0.5
23 1 0.19593 0.852625 0.5
13 1 0.0381165 0.840444 0.5
28 1 0.824886 0.886006 0.5
96 1 0.585415 0.899129 0.5
2 1 0.59242 0.881997 0.5
77 1 0.265481 0.917074 0.5
37 1 0.306851 0.941529 0.5
64 1 0.744137 0.940315 0.5
10 1 0.949461 0.951478 0.5
92 1 0.0282249 0.937286 0.5
22 1 0.137843 0.946222 0.5
65 1 0.139094 0.965505 0.5
30 1 0.150524 0.972855 0.5
3 1 0.490439 0.971689 0.5
25 1 0.223454 0.971086 0.5
39 1 0.250697 0.00673128 0.5
14 1 0.576426 0.993061 0.5
89 1 0.942247 0.978498 0.5
ITEM: TIMESTEP
10000
ITEM: NUMBER OF ATOMS
100
ITEM: BOX BOUNDS pp pp pp
-5.0000000000000000e+01 5.0000000000000000e+01
-5.0000000000000000e+01 5.0000000000000000e+01
-1.0000000000000000e+00 1.0000000000000000e+00
ITEM: ATOMS id type xs ys zs
30 1 0.141132 0.0103339 0.5
80 1 0.300957 0.000186856 0.5
14 1 0.578524 0.0171799 0.5
54 1 0.381467 0.0244585 0.5
100 1 0.921458 0.0330736 0.5
85 1 0.0134512 0.0413274 0.5
51 1 0.637212 0.0357647 0.5
20 1 0.919622 0.0678176 0.5
34 1 0.657779 0.0716711 0.5
43 1 0.073672 0.119502 0.5
70 1 0.565793 0.134077 0.5
94 1 0.210379 0.156728 0.5
29 1 0.621697 0.167608 0.5
91 1 0.197263 0.155475 0.5
38 1 0.462631 0.187267 0.5
62 1 0.476396 0.201014 0.5
21 1 0.956496 0.189918 0.5
46 1 0.916753 0.190261 0.5
7 1 0.0894208 0.212435 0.5
8 1 0.323296 0.22658 0.5
93 1 0.383034 0.211725 0.5
71 1 0.590428 0.213921 0.5
57 1 0.675702 0.220029 0.5
18 1 0.304936 0.240975 0.5
79 1 0.184337 0.283676 0.5
33 1 0.464351 0.282184 0.5
11 1 0.252766 0.284885 0.5
72 1 0.287638 0.282302 0.5
66 1 0.0697136 0.302875 0.5
15 1 0.452654 0.294121 0.5
50 1 0.682712 0.288205 0.5
76 1 0.375259 0.32453 0.5
5 1 0.520538 0.312575 0.5
55 1 0.941849 0.317071 0.5
47 1 0.388284 0.33293 0.5
67 1 0.485106 0.325826 0.5
59 1 0.837811 0.324696 0.5
32 1 0.246392 0.326238 0.5
61 1 0.971694 0.348143 0.5
73 1 0.434553 0.365071 0.5
17 1 0.00651932 0.39292 0.5
12 1 0.127116 0.392143 0.5
87 1 0.238392 0.373647 0.5
74 1 0.969173 0.387047 0.5
84 1 0.104645 0.408827 0.5
52 1 0.901706 0.398024 0.5
24 1 0.551051 0.426564 0.5
68 1 0.725903 0.459689 0.5
36 1 0.176192 0.473175 0.5
49 1 0.659434 0.471905 0.5
1 1 0.890798 0.490187 0.5
4 1 0.144442 0.50403 0.5
88 1 0.64135 0.511492 0.5
56 1 0.250523 0.526223 0.5
69 1 0.586649 0.512666 0.5
31 1 0.83494 0.513277 0.5
83 1 0.40254 0.532206 0.5
97 1 0.183916 0.570732 0.5
95 1 0.709021 0.584562 0.5
40 1 0.0476446 0.580459 0.5
78 1 0.0775532 0.574114 0.5
98 1 0.0173481 0.587184 0.5
45 1 0.0229191 0.610154 0.5
44 1 0.144023 0.600802 0.5
42 1 0.918748 0.596777 0.5
41 1 0.855975 0.621945 0.5
63 1 0.175043 0.660878 0.5
35 1 0.890299 0.654881 0.5
75 1 0.999206 0.646032 0.5
9 1 0.80313 0.663035 0.5
82 1 0.128579 0.685503 0.5
27 1 0.582871 0.682284 0.5
26 1 0.629917 0.670323 0.5
86 1 0.0910241 0.682515 0.5
53 1 0.161778 0.699775 0.5
81 1 0.32597 0.694841 0.5
58 1 0.0169415 0.724762 0.5
90 1 0.703432 0.7356 0.5
48 1 0.878829 0.741213 0.5
60 1 0.114141 0.748446 0.5
6 1 0.76724 0.817822 0.5
13 1 0.0245494 0.826723 0.5
2 1 0.5844 0.845549 0.5
99 1 0.636743 0.831025 0.5
23 1 0.172227 0.855487 0.5
28 1 0.815665 0.887755 0.5
77 1 0.245833 0.91398 0.5
37 1 0.301004 0.915855 0.5
64 1 0.700966 0.908993 0.5
96 1 0.570246 0.927613 0.5
19 1 0.319096 0.948491 0.5
92 1 0.0380721 0.952659 0.5
10 1 0.971335 0.943798 0.5
22 1 0.151096 0.972157 0.5
65 1 0.126588 0.96013 0.5
25 1 0.231393 0.980249 0.5
39 1 0.282869 0.964597 0.5
16 1 0.257011 0.979225 0.5
3 1 0.508171 0.968392 0.5
89 1 0.983201 0.966846 0.5
ITEM: TIMESTEP
15000
ITEM: NUMBER OF ATOMS
100
ITEM: BOX BOUNDS pp pp pp
-5.0000000000000000e+01 5.0000000000000000e+01
-5.0000000000000000e+01 5.0000000000000000e+01
-1.0000000000000000e+00 1.0000000000000000e+00
ITEM: ATOMS id type xs ys zs
30 1 0.146576 0.00741433 0.5
54 1 0.361197 0.0125991 0.5
3 1 0.476796 0.000251735 0.5
80 1 0.335344 0.0151071 0.5
14 1 0.602123 0.0231721 0.5
89 1 0.997405 0.0157074 0.5
51 1 0.620218 0.0463895 0.5
34 1 0.656346 0.0508699 0.5
100 1 0.884782 0.0449591 0.5
20 1 0.940134 0.0991185 0.5
43 1 0.0511901 0.115642 0.5
70 1 0.582197 0.137226 0.5
94 1 0.198159 0.171171 0.5
62 1 0.482184 0.174289 0.5
29 1 0.585195 0.176779 0.5
21 1 0.962386 0.175708 0.5
91 1 0.147354 0.19215 0.5
46 1 0.898123 0.197073 0.5
38 1 0.464549 0.207298 0.5
7 1 0.0659828 0.223068 0.5
71 1 0.616073 0.224422 0.5
8 1 0.276514 0.232922 0.5
57 1 0.675837 0.238086 0.5
18 1 0.291031 0.247543 0.5
93 1 0.340146 0.243384 0.5
79 1 0.174245 0.266696 0.5
11 1 0.229745 0.272204 0.5
72 1 0.286471 0.267738 0.5
50 1 0.712794 0.275432 0.5
66 1 0.0823776 0.2894 0.5
15 1 0.410839 0.28326 0.5
76 1 0.361107 0.300776 0.5
33 1 0.475452 0.305975 0.5
32 1 0.245342 0.32118 0.5
67 1 0.47424 0.316821 0.5
5 1 0.502243 0.317609 0.5
59 1 0.865957 0.329037 0.5
55 1 0.960872 0.32947 0.5
61 1 0.987395 0.327313 0.5
12 1 0.116838 0.351645 0.5
47 1 0.39388 0.361053 0.5
73 1 0.428684 0.377369 0.5
84 1 0.0971098 0.389305 0.5
17 1 0.994174 0.389516 0.5
87 1 0.255722 0.394715 0.5
74 1 0.978958 0.415562 0.5
52 1 0.906691 0.424335 0.5
68 1 0.729492 0.448761 0.5
24 1 0.550556 0.453031 0.5
1 1 0.900439 0.473474 0.5
36 1 0.164178 0.485115 0.5
69 1 0.624932 0.501954 0.5
49 1 0.714314 0.493368 0.5
31 1 0.841443 0.504032 0.5
4 1 0.155561 0.518082 0.5
56 1 0.223418 0.51759 0.5
83 1 0.417736 0.516508 0.5
45 1 0.0308997 0.558066 0.5
78 1 0.0576069 0.554551 0.5
88 1 0.654751 0.552444 0.5
40 1 0.059963 0.568865 0.5
44 1 0.148731 0.581996 0.5
97 1 0.164757 0.596315 0.5
95 1 0.718297 0.603875 0.5
42 1 0.930071 0.59719 0.5
9 1 0.781113 0.614889 0.5
98 1 0.0481318 0.624776 0.5
41 1 0.840701 0.626502 0.5
35 1 0.899013 0.630551 0.5
63 1 0.155382 0.645125 0.5
81 1 0.314376 0.669789 0.5
26 1 0.626339 0.668603 0.5
75 1 0.0276644 0.679395 0.5
90 1 0.687494 0.686087 0.5
27 1 0.592048 0.692727 0.5
86 1 0.0944973 0.706012 0.5
82 1 0.133986 0.707431 0.5
53 1 0.143963 0.713012 0.5
58 1 0.00893465 0.720617 0.5
60 1 0.121809 0.728635 0.5
48 1 0.844995 0.726299 0.5
6 1 0.692515 0.816595 0.5
23 1 0.181237 0.825725 0.5
13 1 0.0386854 0.842263 0.5
2 1 0.581015 0.839349 0.5
99 1 0.680191 0.842651 0.5
77 1 0.236441 0.878414 0.5
37 1 0.32961 0.888981 0.5
28 1 0.786207 0.891085 0.5
96 1 0.566362 0.917223 0.5
64 1 0.759606 0.922892 0.5
92 1 0.0502726 0.940377 0.5
10 1 0.00898507 0.945036 0.5
65 1 0.128267 0.947141 0.5
39 1 0.280573 0.957412 0.5
16 1 0.284905 0.968964 0.5
19 1 0.322099 0.963983 0.5
85 1 0.0168492 0.985003 0.5
25 1 0.246375 0.975091 0.5
22 1 0.175772 0.990233 0.5
ITEM: TIMESTEP
20000
ITEM: NUMBER OF ATOMS
100
ITEM: BOX BOUNDS pp pp pp
-5.0000000000000000e+01 5.0000000000000000e+01
-5.0000000000000000e+01 5.0000000000000000e+01
-1.0000000000000000e+00 1.0000000000000000e+00
ITEM: ATOMS id type xs ys zs
22 1 0.169459 0.0373617 0.5
54 1 0.322846 0.0209406 0.5
80 1 0.353247 0.0223199 0.5
51 1 0.59816 0.0402801 0.5
100 1 0.879244 0.0432755 0.5
20 1 0.971235 0.0486111 0.5
30 1 0.144429 0.0606251 0.5
34 1 0.656513 0.0759831 0.5
43 1 0.0332365 0.137622 0.5
70 1 0.588512 0.163571 0.5
94 1 0.184329 0.147564 0.5
21 1 0.965399 0.147411 0.5
62 1 0.473059 0.160064 0.5
91 1 0.156438 0.191544 0.5
29 1 0.567171 0.205788 0.5
8 1 0.264405 0.201528 0.5
38 1 0.467203 0.195685 0.5
46 1 0.914188 0.190769 0.5
7 1 0.0997448 0.200444 0.5
93 1 0.339862 0.241196 0.5
71 1 0.626166 0.210247 0.5
57 1 0.686589 0.24825 0.5
66 1 0.0813871 0.246348 0.5
11 1 0.282868 0.284019 0.5
50 1 0.704783 0.282033 0.5
79 1 0.163927 0.292615 0.5
72 1 0.286093 0.29578 0.5
18 1 0.292366 0.278819 0.5
15 1 0.378773 0.304548 0.5
76 1 0.372479 0.295828 0.5
67 1 0.48823 0.301432 0.5
33 1 0.517856 0.321281 0.5
12 1 0.102597 0.331456 0.5
32 1 0.257532 0.334995 0.5
5 1 0.481056 0.309723 0.5
55 1 0.993728 0.321835 0.5
59 1 0.889837 0.330055 0.5
61 1 0.00123961 0.357109 0.5
17 1 0.996972 0.383822 0.5
87 1 0.24953 0.366599 0.5
47 1 0.410667 0.369208 0.5
84 1 0.129795 0.402145 0.5
73 1 0.411389 0.397128 0.5
74 1 0.958601 0.418272 0.5
52 1 0.908146 0.433121 0.5
68 1 0.71491 0.442822 0.5
83 1 0.413828 0.491051 0.5
49 1 0.744839 0.480554 0.5
31 1 0.818139 0.465678 0.5
36 1 0.144553 0.505968 0.5
24 1 0.537487 0.497229 0.5
1 1 0.902102 0.485045 0.5
69 1 0.651457 0.508391 0.5
56 1 0.205417 0.520179 0.5
78 1 0.0178911 0.525595 0.5
40 1 0.0687886 0.545849 0.5
4 1 0.158528 0.529435 0.5
88 1 0.634535 0.546162 0.5
95 1 0.68824 0.576035 0.5
45 1 0.0424191 0.593822 0.5
97 1 0.148928 0.593848 0.5
42 1 0.915663 0.604197 0.5
98 1 0.0755402 0.612097 0.5
44 1 0.128525 0.606725 0.5
35 1 0.8967 0.605364 0.5
9 1 0.805399 0.629485 0.5
81 1 0.341192 0.623799 0.5
41 1 0.805721 0.645928 0.5
26 1 0.628716 0.646543 0.5
27 1 0.604462 0.673369 0.5
63 1 0.139094 0.676398 0.5
53 1 0.150803 0.667285 0.5
90 1 0.653232 0.676578 0.5
75 1 0.0337178 0.704382 0.5
86 1 0.108191 0.704648 0.5
82 1 0.142623 0.696075 0.5
48 1 0.873475 0.710319 0.5
58 1 0.00229963 0.716778 0.5
60 1 0.111536 0.715752 0.5
6 1 0.706468 0.779054 0.5
99 1 0.696429 0.825309 0.5
23 1 0.195057 0.840114 0.5
2 1 0.578276 0.849314 0.5
13 1 0.0598381 0.860232 0.5
77 1 0.222739 0.8743 0.5
28 1 0.807181 0.860879 0.5
37 1 0.359263 0.916257 0.5
64 1 0.719657 0.961198 0.5
92 1 0.0316764 0.966885 0.5
16 1 0.309283 0.957083 0.5
96 1 0.596791 0.969703 0.5
10 1 0.989668 0.948396 0.5
85 1 0.979801 0.947306 0.5
39 1 0.283929 0.979046 0.5
19 1 0.309376 0.968087 0.5
65 1 0.147904 0.983601 0.5
25 1 0.265423 0.971392 0.5
14 1 0.57975 0.980961 0.5
3 1 0.433507 0.987749 0.5
89 1 0.970282 0.98334 0.5
