ITEM: TIMESTEP
0
ITEM: NUMBER OF ATOMS
100
ITEM: BOX BOUNDS pp pp pp
-5.0000000000000000e+01 5.0000000000000000e+01
-5.0000000000000000e+01 5.0000000000000000e+01
-1.0000000000000000e+00 1.0000000000000000e+00
ITEM: ATOMS id type xs ys zs
39 1 0.322187 0.00293706 0.5
10 1 0.894508 0.0026232 0.5
85 1 0.982151 0.00421545 0.5
16 1 0.402335 0.0384195 0.5
54 1 0.450945 0.0307273 0.5
43 1 0.133816 0.0534659 0.5
80 1 0.37211 0.0511508 0.5
22 1 0.0623004 0.0831812 0.5
7 1 0.0927653 0.105616 0.5
34 1 0.554299 0.10377 0.5
70 1 0.650152 0.112396 0.5
51 1 0.757253 0.154488 0.5
8 1 0.438398 0.162966 0.5
94 1 0.169225 0.169692 0.5
38 1 0.644682 0.176443 0.5
93 1 0.433819 0.194319 0.5
29 1 0.732504 0.192949 0.5
46 1 0.908383 0.189436 0.5
21 1 0.972999 0.200148 0.5
91 1 0.108836 0.212152 0.5
5 1 0.623861 0.234069 0.5
55 1 0.91969 0.232042 0.5
62 1 0.346953 0.239801 0.5
57 1 0.643377 0.240429 0.5
71 1 0.750536 0.252835 0.5
72 1 0.230931 0.263742 0.5
52 1 0.999063 0.254143 0.5
32 1 0.262943 0.279608 0.5
47 1 0.366888 0.285776 0.5
18 1 0.342673 0.29702 0.5
50 1 0.738341 0.305237 0.5
79 1 0.156443 0.332115 0.5
61 1 0.0454181 0.34178 0.5
11 1 0.191191 0.349415 0.5
15 1 0.378792 0.359464 0.5
67 1 0.497433 0.363287 0.5
59 1 0.80296 0.353547 0.5
76 1 0.278121 0.373672 0.5
74 1 0.00103428 0.383078 0.5
17 1 0.0397686 0.390194 0.5
31 1 0.80207 0.394014 0.5
12 1 0.0231692 0.405158 0.5
84 1 0.118606 0.403713 0.5
73 1 0.295436 0.398207 0.5
33 1 0.519569 0.397952 0.5
95 1 0.645708 0.407213 0.5
66 1 0.0824905 0.417467 0.5
68 1 0.68938 0.417451 0.5
87 1 0.217673 0.433501 0.5
97 1 0.168409 0.441787 0.5
1 1 0.8226 0.441064 0.5
98 1 0.0854688 0.474111 0.5
36 1 0.204229 0.479098 0.5
56 1 0.239869 0.482087 0.5
4 1 0.0672042 0.50025 0.5
69 1 0.477807 0.506664 0.5
88 1 0.597758 0.512219 0.5
49 1 0.671477 0.5161 0.5
83 1 0.391178 0.521891 0.5
24 1 0.358098 0.556788 0.5
41 1 0.739487 0.553621 0.5
40 1 0.055013 0.60339 0.5
48 1 0.92108 0.592072 0.5
45 1 0.100651 0.63902 0.5
27 1 0.681957 0.643375 0.5
35 1 0.86914 0.641177 0.5
78 1 0.0292528 0.651562 0.5
44 1 0.085004 0.661869 0.5
82 1 0.124512 0.665007 0.5
42 1 0.888003 0.672494 0.5
75 1 0.180679 0.680164 0.5
81 1 0.340494 0.690469 0.5
26 1 0.643226 0.702314 0.5
53 1 0.163486 0.716883 0.5
63 1 0.216917 0.730544 0.5
90 1 0.652688 0.723666 0.5
9 1 0.867301 0.734297 0.5
60 1 0.0202146 0.747589 0.5
28 1 0.814828 0.815087 0.5
58 1 0.0345582 0.819078 0.5
86 1 0.0855494 0.829388 0.5
6 1 0.671972 0.826311 0.5
37 1 0.345144 0.831969 0.5
92 1 0.882837 0.84151 0.5
13 1 0.03224 0.857071 0.5
64 1 0.866119 0.859044 0.5
14 1 0.583082 0.860443 0.5
23 1 0.213475 0.876324 0.5
96 1 0.667692 0.892884 0.5
100 1 0.87338 0.890118 0.5
3 1 0.481401 0.911685 0.5
99 1 0.555239 0.907456 0.5
2 1 0.584573 0.926566 0.5
20 1 0.856961 0.951873 0.5
89 1 0.0427179 0.960444 0.5
65 1 0.0442664 0.985 0.5
77 1 0.133336 0.978938 0.5
25 1 0.224786 0.973261 0.5
30 1 0.276788 0.97998 0.5
19 1 0.344201 0.979807 0.5
ITEM: TIMESTEP
1000
ITEM: NUMBER OF ATOMS
100
ITEM: BOX BOUNDS pp pp pp
-5.0000000000000000e+01 5.0000000000000000e+01
-5.0000000000000000e+01 5.0000000000000000e+01
-1.0000000000000000e+00 1.0000000000000000e+00
ITEM: ATOMS id type xs ys zs
39 1 0.309911 0.0112951 0.5
10 1 0.895713 0.00260863 0.5
85 1 0.994916 0.998721 0.5
16 1 0.395379 0.044739 0.5
54 1 0.460656 0.0217273 0.5
43 1 0.138187 0.0658715 0.5
80 1 0.385466 0.0410517 0.5
22 1 0.0984994 0.0750061 0.5
7 1 0.0776707 0.0908401 0.5
34 1 0.573478 0.112477 0.5
70 1 0.658652 0.104499 0.5
51 1 0.741491 0.144443 0.5
8 1 0.421824 0.166421 0.5
94 1 0.170259 0.170702 0.5
38 1 0.634746 0.167162 0.5
93 1 0.410977 0.188477 0.5
29 1 0.742995 0.184308 0.5
46 1 0.887739 0.192404 0.5
21 1 0.985808 0.203298 0.5
91 1 0.115377 0.214318 0.5
5 1 0.6126 0.228181 0.5
55 1 0.906623 0.248313 0.5
62 1 0.355472 0.224929 0.5
57 1 0.646252 0.252798 0.5
71 1 0.734147 0.224058 0.5
72 1 0.230354 0.244927 0.5
52 1 0.00328713 0.257237 0.5
32 1 0.27606 0.277074 0.5
47 1 0.366638 0.286686 0.5
18 1 0.34746 0.302042 0.5
50 1 0.737873 0.302934 0.5
79 1 0.156542 0.339462 0.5
61 1 0.037326 0.342834 0.5
11 1 0.188386 0.337078 0.5
15 1 0.38661 0.363293 0.5
67 1 0.499452 0.357137 0.5
59 1 0.806111 0.358527 0.5
76 1 0.273896 0.389561 0.5
74 1 0.998848 0.378647 0.5
17 1 0.0372103 0.389643 0.5
31 1 0.799007 0.399395 0.5
12 1 0.0256882 0.398081 0.5
84 1 0.125692 0.399386 0.5
73 1 0.295529 0.377884 0.5
33 1 0.493991 0.409779 0.5
95 1 0.654032 0.426833 0.5
66 1 0.0867823 0.41109 0.5
68 1 0.69179 0.422494 0.5
87 1 0.228859 0.426654 0.5
97 1 0.160204 0.424813 0.5
1 1 0.848632 0.463531 0.5
98 1 0.103093 0.481363 0.5
36 1 0.196818 0.467437 0.5
56 1 0.2368 0.481464 0.5
4 1 0.0711766 0.4996 0.5
69 1 0.480828 0.511194 0.5
88 1 0.591443 0.494862 0.5
49 1 0.658271 0.505893 0.5
83 1 0.389981 0.528892 0.5
24 1 0.367387 0.545462 0.5
41 1 0.735676 0.554636 0.5
40 1 0.060862 0.599482 0.5
48 1 0.931193 0.593671 0.5
45 1 0.111338 0.620096 0.5
27 1 0.691415 0.660585 0.5
35 1 0.869524 0.629083 0.5
78 1 0.0178643 0.659371 0.5
44 1 0.0750158 0.643058 0.5
82 1 0.138292 0.671402 0.5
42 1 0.891527 0.679144 0.5
75 1 0.169274 0.666553 0.5
81 1 0.34979 0.713763 0.5
26 1 0.63405 0.69977 0.5
53 1 0.14456 0.722315 0.5
63 1 0.229325 0.730259 0.5
90 1 0.665064 0.710768 0.5
9 1 0.853763 0.731419 0.5
60 1 0.0171071 0.759482 0.5
28 1 0.798539 0.840865 0.5
58 1 0.0522357 0.80729 0.5
86 1 0.070884 0.830522 0.5
6 1 0.67203 0.825232 0.5
37 1 0.347175 0.843705 0.5
92 1 0.879654 0.868004 0.5
13 1 0.0372569 0.858786 0.5
64 1 0.860775 0.864488 0.5
14 1 0.574525 0.869844 0.5
23 1 0.222272 0.881829 0.5
96 1 0.663981 0.899186 0.5
100 1 0.866908 0.90251 0.5
3 1 0.494231 0.904483 0.5
99 1 0.568561 0.90561 0.5
2 1 0.576837 0.932312 0.5
20 1 0.848938 0.955474 0.5
89 1 0.0403915 0.97134 0.5
65 1 0.0359566 0.988318 0.5
77 1 0.14085 0.977747 0.5
25 1 0.21709 0.95999 0.5
30 1 0.264225 0.00156883 0.5
19 1 0.34669 0.967045 0.5
ITEM: TIMESTEP
2000
ITEM: NUMBER OF ATOMS
100
ITEM: BOX BOUNDS pp pp pp
-5.0000000000000000e+01 5.0000000000000000e+01
-5.0000000000000000e+01 5.0000000000000000e+01
-1.0000000000000000e+00 1.0000000000000000e+00
ITEM: ATOMS id type xs ys zs
30 1 0.267594 0.0133423 0.5
39 1 0.296623 0.00643356 0.5
10 1 0.889314 0.996573 0.5
54 1 0.444899 0.0165844 0.5
80 1 0.383779 0.0310642 0.5
16 1 0.396596 0.0311854 0.5
43 1 0.147359 0.069133 0.5
22 1 0.0950954 0.0942048 0.5
7 1 0.0814595 0.0940648 0.5
34 1 0.581318 0.116678 0.5
70 1 0.655298 0.109606 0.5
51 1 0.74948 0.144819 0.5
8 1 0.405163 0.153524 0.5
38 1 0.608855 0.172753 0.5
94 1 0.174332 0.176108 0.5
93 1 0.417937 0.188117 0.5
29 1 0.749433 0.178816 0.5
46 1 0.874497 0.191417 0.5
21 1 0.00460935 0.200584 0.5
91 1 0.129267 0.212784 0.5
71 1 0.720453 0.223747 0.5
62 1 0.367895 0.219615 0.5
5 1 0.616713 0.223972 0.5
72 1 0.220056 0.258266 0.5
57 1 0.642438 0.2411 0.5
55 1 0.896226 0.259093 0.5
52 1 0.00289898 0.244203 0.5
32 1 0.267969 0.288286 0.5
47 1 0.380473 0.280389 0.5
18 1 0.346905 0.303047 0.5
50 1 0.732135 0.29557 0.5
11 1 0.213646 0.334101 0.5
61 1 0.0413719 0.352872 0.5
79 1 0.169939 0.337664 0.5
15 1 0.398855 0.366816 0.5
67 1 0.480665 0.356793 0.5
59 1 0.803498 0.362848 0.5
73 1 0.29592 0.389808 0.5
74 1 0.00107052 0.387825 0.5
17 1 0.0383677 0.384421 0.5
76 1 0.282181 0.385259 0.5
12 1 0.0369029 0.410794 0.5
84 1 0.127815 0.387894 0.5
31 1 0.796873 0.3829 0.5
66 1 0.073708 0.41286 0.5
33 1 0.490107 0.412242 0.5
68 1 0.685325 0.416396 0.5
97 1 0.157935 0.417572 0.5
87 1 0.236637 0.432646 0.5
95 1 0.649907 0.43376 0.5
1 1 0.870142 0.450369 0.5
36 1 0.183567 0.472209 0.5
98 1 0.0899166 0.483977 0.5
56 1 0.249505 0.483645 0.5
4 1 0.074056 0.504045 0.5
88 1 0.599377 0.475596 0.5
49 1 0.67007 0.518631 0.5
69 1 0.480947 0.522913 0.5
83 1 0.394241 0.529258 0.5
24 1 0.369426 0.549931 0.5
41 1 0.740789 0.542472 0.5
40 1 0.0474404 0.586197 0.5
48 1 0.912978 0.592488 0.5
45 1 0.112434 0.610139 0.5
35 1 0.874694 0.625651 0.5
44 1 0.0731509 0.639954 0.5
78 1 0.0222374 0.669033 0.5
27 1 0.694896 0.657763 0.5
82 1 0.143299 0.661816 0.5
75 1 0.160211 0.652841 0.5
42 1 0.882866 0.673075 0.5
26 1 0.631738 0.695002 0.5
81 1 0.356911 0.707035 0.5
90 1 0.657356 0.71189 0.5
53 1 0.14977 0.710585 0.5
63 1 0.218787 0.72371 0.5
9 1 0.843886 0.724264 0.5
60 1 0.0135215 0.773651 0.5
58 1 0.045506 0.815758 0.5
86 1 0.0854732 0.83586 0.5
6 1 0.683321 0.825486 0.5
37 1 0.349193 0.849734 0.5
28 1 0.802468 0.855867 0.5
13 1 0.0590867 0.864111 0.5
14 1 0.580002 0.864917 0.5
64 1 0.839597 0.874136 0.5
92 1 0.891858 0.871393 0.5
23 1 0.224666 0.875147 0.5
96 1 0.671038 0.90156 0.5
3 1 0.471868 0.920281 0.5
99 1 0.55609 0.906979 0.5
100 1 0.870383 0.906037 0.5
2 1 0.569152 0.915335 0.5
20 1 0.844456 0.963602 0.5
89 1 0.0321758 0.982445 0.5
25 1 0.201391 0.955501 0.5
19 1 0.362656 0.976748 0.5
77 1 0.152993 0.966394 0.5
65 1 0.0287363 0.993827 0.5
85 1 0.0044238 0.0130295 0.5
ITEM: TIMESTEP
3000
ITEM: NUMBER OF ATOMS
100
ITEM: BOX BOUNDS pp pp pp
-5.0000000000000000e+01 5.0000000000000000e+01
-5.0000000000000000e+01 5.0000000000000000e+01
-1.0000000000000000e+00 1.0000000000000000e+00
ITEM: ATOMS id type xs ys zs
85 1 0.0160347 0.0155189 0.5
30 1 0.267415 0.0127633 0.5
39 1 0.288211 0.998632 0.5
54 1 0.42426 0.0207452 0.5
80 1 0.377256 0.0331878 0.5
16 1 0.379432 0.0196121 0.5
43 1 0.132485 0.070836 0.5
7 1 0.0713645 0.0925817 0.5
22 1 0.107397 0.082036 0.5
70 1 0.66252 0.100639 0.5
34 1 0.58206 0.126232 0.5
8 1 0.39401 0.162101 0.5
51 1 0.737894 0.153822 0.5
94 1 0.187517 0.180935 0.5
38 1 0.596899 0.172934 0.5
29 1 0.755314 0.176582 0.5
93 1 0.404294 0.191697 0.5
46 1 0.88846 0.193464 0.5
21 1 0.0191728 0.206503 0.5
91 1 0.11965 0.219869 0.5
62 1 0.364669 0.230614 0.5
5 1 0.608333 0.210043 0.5
71 1 0.734553 0.222425 0.5
52 1 0.000710511 0.251268 0.5
57 1 0.634273 0.249094 0.5
72 1 0.243003 0.273805 0.5
55 1 0.89199 0.267812 0.5
47 1 0.370276 0.280098 0.5
32 1 0.277565 0.305681 0.5
50 1 0.747855 0.301596 0.5
18 1 0.352899 0.294595 0.5
79 1 0.168633 0.329174 0.5
11 1 0.209913 0.329958 0.5
61 1 0.0517551 0.356098 0.5
67 1 0.489277 0.351541 0.5
59 1 0.804112 0.341328 0.5
15 1 0.397647 0.356892 0.5
74 1 0.0107747 0.384264 0.5
17 1 0.0340835 0.37966 0.5
84 1 0.132677 0.386707 0.5
76 1 0.289204 0.358571 0.5
73 1 0.281609 0.403705 0.5
31 1 0.793009 0.389523 0.5
12 1 0.0349594 0.396284 0.5
66 1 0.0914798 0.400046 0.5
97 1 0.170211 0.404909 0.5
33 1 0.481947 0.420474 0.5
68 1 0.688376 0.409114 0.5
87 1 0.218408 0.431079 0.5
95 1 0.635976 0.43081 0.5
1 1 0.872418 0.456946 0.5
36 1 0.174009 0.500755 0.5
88 1 0.583416 0.45893 0.5
98 1 0.0716815 0.489994 0.5
56 1 0.241856 0.491863 0.5
4 1 0.0752585 0.500105 0.5
49 1 0.672822 0.523777 0.5
83 1 0.399262 0.534442 0.5
69 1 0.483948 0.519176 0.5
41 1 0.746438 0.544373 0.5
24 1 0.399841 0.554056 0.5
40 1 0.0506721 0.59401 0.5
48 1 0.900405 0.596189 0.5
45 1 0.112869 0.606955 0.5
35 1 0.872283 0.621888 0.5
44 1 0.0715926 0.62929 0.5
82 1 0.13369 0.672896 0.5
75 1 0.171326 0.653721 0.5
27 1 0.705089 0.668299 0.5
78 1 0.0225296 0.663959 0.5
42 1 0.883697 0.671977 0.5
26 1 0.633838 0.71839 0.5
53 1 0.164609 0.71461 0.5
81 1 0.369153 0.699481 0.5
90 1 0.660173 0.719494 0.5
63 1 0.227315 0.71391 0.5
9 1 0.843088 0.723589 0.5
60 1 0.00357667 0.765091 0.5
58 1 0.0301563 0.822154 0.5
6 1 0.697195 0.824039 0.5
86 1 0.0890374 0.832472 0.5
37 1 0.341189 0.858561 0.5
28 1 0.801262 0.833738 0.5
13 1 0.0518827 0.868783 0.5
14 1 0.581255 0.876976 0.5
92 1 0.881488 0.865164 0.5
23 1 0.218031 0.875732 0.5
64 1 0.829842 0.868356 0.5
99 1 0.552667 0.902737 0.5
2 1 0.578773 0.908606 0.5
96 1 0.677169 0.893362 0.5
100 1 0.865635 0.909019 0.5
3 1 0.472713 0.915262 0.5
25 1 0.176856 0.956055 0.5
77 1 0.160231 0.94184 0.5
20 1 0.858696 0.972964 0.5
89 1 0.0160879 0.994285 0.5
19 1 0.380631 0.991202 0.5
65 1 0.0436587 0.00332141 0.5
10 1 0.899402 0.982185 0.5
ITEM: TIMESTEP
4000
ITEM: NUMBER OF ATOMS
100
ITEM: BOX BOUNDS pp pp pp
-5.0000000000000000e+01 5.0000000000000000e+01
-5.0000000000000000e+01 5.0000000000000000e+01
-1.0000000000000000e+00 1.0000000000000000e+00
ITEM: ATOMS id type xs ys zs
85 1 0.00177814 0.0129876 0.5
39 1 0.286211 0.00166037 0.5
30 1 0.25531 0.0174765 0.5
16 1 0.362173 0.0160642 0.5
80 1 0.379404 0.0196258 0.5
54 1 0.419399 0.0214152 0.5
43 1 0.121772 0.0654261 0.5
7 1 0.0621309 0.0727214 0.5
22 1 0.118884 0.0770286 0.5
70 1 0.65022 0.0931801 0.5
34 1 0.58754 0.129919 0.5
8 1 0.386962 0.148503 0.5
51 1 0.756693 0.154137 0.5
38 1 0.602503 0.161916 0.5
29 1 0.746957 0.169716 0.5
21 1 0.0150146 0.195536 0.5
94 1 0.198849 0.187842 0.5
93 1 0.401608 0.188187 0.5
46 1 0.899222 0.194486 0.5
5 1 0.610522 0.212933 0.5
71 1 0.737458 0.224321 0.5
91 1 0.132212 0.236156 0.5
62 1 0.356228 0.226623 0.5
52 1 0.0122299 0.266539 0.5
57 1 0.642611 0.255858 0.5
47 1 0.383065 0.272931 0.5
50 1 0.760467 0.276147 0.5
55 1 0.887252 0.275705 0.5
72 1 0.24384 0.281719 0.5
18 1 0.35096 0.295619 0.5
32 1 0.265556 0.310423 0.5
79 1 0.17382 0.324595 0.5
11 1 0.225414 0.327363 0.5
67 1 0.47036 0.329734 0.5
59 1 0.808905 0.341594 0.5
61 1 0.0561348 0.359875 0.5
76 1 0.281809 0.35986 0.5
15 1 0.390936 0.355893 0.5
17 1 0.0265982 0.376147 0.5
74 1 0.0240644 0.388816 0.5
12 1 0.0344684 0.383165 0.5
84 1 0.13953 0.38254 0.5
66 1 0.0893442 0.396087 0.5
97 1 0.164787 0.408324 0.5
73 1 0.283269 0.401818 0.5
68 1 0.695097 0.402068 0.5
31 1 0.796276 0.39786 0.5
33 1 0.486652 0.41003 0.5
87 1 0.226699 0.430232 0.5
95 1 0.63606 0.444399 0.5
88 1 0.579991 0.470253 0.5
1 1 0.864269 0.473689 0.5
56 1 0.240928 0.489199 0.5
98 1 0.065503 0.504456 0.5
36 1 0.185197 0.503406 0.5
69 1 0.486589 0.506203 0.5
4 1 0.080165 0.514243 0.5
83 1 0.388426 0.546069 0.5
49 1 0.669519 0.54279 0.5
41 1 0.753211 0.542684 0.5
24 1 0.3996 0.555186 0.5
48 1 0.89987 0.599548 0.5
40 1 0.0439243 0.610002 0.5
45 1 0.139978 0.608667 0.5
35 1 0.896164 0.624432 0.5
44 1 0.070918 0.64152 0.5
75 1 0.182071 0.652646 0.5
42 1 0.887865 0.651634 0.5
78 1 0.022017 0.665582 0.5
27 1 0.70695 0.663959 0.5
82 1 0.125366 0.676787 0.5
63 1 0.22918 0.70365 0.5
81 1 0.3551 0.703439 0.5
90 1 0.655951 0.716202 0.5
53 1 0.156405 0.720528 0.5
26 1 0.620379 0.723868 0.5
9 1 0.831918 0.722042 0.5
60 1 0.00895631 0.746669 0.5
58 1 0.0429721 0.818735 0.5
86 1 0.0752452 0.840322 0.5
6 1 0.700299 0.83395 0.5
28 1 0.810395 0.839737 0.5
13 1 0.0523753 0.858608 0.5
23 1 0.214203 0.869459 0.5
37 1 0.33636 0.863344 0.5
14 1 0.579035 0.880317 0.5
64 1 0.847192 0.882118 0.5
92 1 0.88409 0.874578 0.5
99 1 0.550527 0.894291 0.5
2 1 0.584504 0.897432 0.5
96 1 0.65769 0.896966 0.5
3 1 0.488333 0.910282 0.5
100 1 0.84632 0.914376 0.5
77 1 0.155995 0.927783 0.5
25 1 0.163509 0.976662 0.5
20 1 0.859314 0.980352 0.5
10 1 0.897347 0.981144 0.5
89 1 0.0132487 0.993689 0.5
65 1 0.0457364 0.992996 0.5
19 1 0.376183 0.99315 0.5
ITEM: TIMESTEP
5000
ITEM: NUMBER OF ATOMS
100
ITEM: BOX BOUNDS pp pp pp
-5.0000000000000000e+01 5.0000000000000000e+01
-5.0000000000000000e+01 5.0000000000000000e+01
-1.0000000000000000e+00 1.0000000000000000e+00
ITEM: ATOMS id type xs ys zs
85 1 0.998475 0.00896284 0.5
39 1 0.28406 0.989846 0.5
30 1 0.246236 0.0088506 0.5
16 1 0.36145 0.0145121 0.5
80 1 0.401155 0.0324101 0.5
54 1 0.424263 0.0244761 0.5
43 1 0.123355 0.0640749 0.5
7 1 0.0767194 0.0698339 0.5
22 1 0.106555 0.0679005 0.5
70 1 0.658625 0.0873184 0.5
34 1 0.594794 0.143274 0.5
8 1 0.387243 0.152726 0.5
51 1 0.745289 0.153728 0.5
38 1 0.607696 0.171197 0.5
29 1 0.728982 0.157436 0.5
21 1 0.0312186 0.195176 0.5
94 1 0.207827 0.203943 0.5
93 1 0.394649 0.182827 0.5
46 1 0.905114 0.212695 0.5
5 1 0.611556 0.222722 0.5
71 1 0.708558 0.227093 0.5
91 1 0.150715 0.247731 0.5
62 1 0.343402 0.241939 0.5
52 1 0.010856 0.273935 0.5
57 1 0.632041 0.253162 0.5
47 1 0.368122 0.268402 0.5
50 1 0.788237 0.272829 0.5
55 1 0.903277 0.269733 0.5
72 1 0.230374 0.28937 0.5
18 1 0.359205 0.299757 0.5
32 1 0.274732 0.302275 0.5
79 1 0.177202 0.325445 0.5
11 1 0.207226 0.332278 0.5
67 1 0.459847 0.353746 0.5
59 1 0.806911 0.340139 0.5
61 1 0.060857 0.360431 0.5
76 1 0.269865 0.354211 0.5
15 1 0.389329 0.34509 0.5
17 1 0.0263618 0.362918 0.5
74 1 0.031787 0.387787 0.5
12 1 0.0299805 0.376428 0.5
84 1 0.140017 0.390743 0.5
66 1 0.0707209 0.388546 0.5
97 1 0.164367 0.408757 0.5
73 1 0.278003 0.401733 0.5
68 1 0.692561 0.414185 0.5
31 1 0.798183 0.401856 0.5
33 1 0.492888 0.40415 0.5
87 1 0.231853 0.431936 0.5
95 1 0.637941 0.449592 0.5
88 1 0.600331 0.464974 0.5
1 1 0.863105 0.470318 0.5
56 1 0.24554 0.470136 0.5
98 1 0.0681287 0.496247 0.5
36 1 0.17208 0.491083 0.5
69 1 0.512147 0.512607 0.5
4 1 0.085574 0.516047 0.5
83 1 0.379534 0.533916 0.5
49 1 0.657814 0.54421 0.5
41 1 0.746697 0.545064 0.5
24 1 0.414454 0.54662 0.5
48 1 0.884981 0.598748 0.5
40 1 0.054621 0.614078 0.5
45 1 0.132493 0.594361 0.5
35 1 0.893165 0.605605 0.5
44 1 0.0948026 0.644052 0.5
75 1 0.177291 0.663151 0.5
42 1 0.877187 0.648766 0.5
78 1 0.0171486 0.660503 0.5
27 1 0.707675 0.671313 0.5
82 1 0.115866 0.680355 0.5
63 1 0.242905 0.719434 0.5
81 1 0.352651 0.704438 0.5
90 1 0.652897 0.704429 0.5
53 1 0.165083 0.723534 0.5
26 1 0.617317 0.725914 0.5
9 1 0.844633 0.730346 0.5
60 1 0.996572 0.744768 0.5
58 1 0.0398263 0.809222 0.5
86 1 0.082488 0.830121 0.5
6 1 0.697512 0.854083 0.5
28 1 0.80073 0.846173 0.5
13 1 0.0454088 0.864584 0.5
23 1 0.226896 0.848651 0.5
37 1 0.33927 0.865349 0.5
14 1 0.578581 0.887077 0.5
64 1 0.835944 0.876597 0.5
92 1 0.883439 0.881243 0.5
99 1 0.538995 0.8929 0.5
2 1 0.593594 0.901273 0.5
96 1 0.649398 0.912291 0.5
3 1 0.494709 0.900691 0.5
100 1 0.858801 0.911136 0.5
77 1 0.165541 0.933921 0.5
25 1 0.165004 0.97179 0.5
20 1 0.855917 0.978777 0.5
10 1 0.902002 0.964191 0.5
89 1 0.0086811 0.00970793 0.5
65 1 0.0434218 0.993249 0.5
19 1 0.363008 0.984693 0.5
ITEM: TIMESTEP
6000
ITEM: NUMBER OF ATOMS
100
ITEM: BOX BOUNDS pp pp pp
-5.0000000000000000e+01 5.0000000000000000e+01
-5.0000000000000000e+01 5.0000000000000000e+01
-1.0000000000000000e+00 1.0000000000000000e+00
ITEM: ATOMS id type xs ys zs
89 1 0.00368176 0.0137466 0.5
39 1 0.28002 0.0038849 0.5
16 1 0.349383 0.0252842 0.5
54 1 0.423122 0.0225252 0.5
80 1 0.415629 0.0328284 0.5
22 1 0.109075 0.0665645 0.5
43 1 0.125494 0.0780471 0.5
70 1 0.658544 0.077973 0.5
7 1 0.0824733 0.0872726 0.5
8 1 0.38749 0.138127 0.5
34 1 0.594809 0.136212 0.5
29 1 0.708392 0.147873 0.5
51 1 0.728756 0.152186 0.5
38 1 0.607934 0.162621 0.5
93 1 0.396457 0.181966 0.5
94 1 0.213614 0.210694 0.5
46 1 0.897764 0.200407 0.5
21 1 0.037611 0.213045 0.5
5 1 0.618456 0.218787 0.5
71 1 0.724631 0.223801 0.5
91 1 0.151233 0.233396 0.5
62 1 0.348104 0.249183 0.5
72 1 0.234812 0.267337 0.5
57 1 0.62167 0.258332 0.5
18 1 0.357965 0.271833 0.5
50 1 0.790477 0.273462 0.5
55 1 0.907097 0.272411 0.5
52 1 0.0449008 0.28485 0.5
47 1 0.362578 0.283666 0.5
32 1 0.273578 0.299765 0.5
79 1 0.175132 0.337568 0.5
17 1 0.041399 0.350309 0.5
11 1 0.207635 0.342903 0.5
76 1 0.28141 0.34166 0.5
15 1 0.381251 0.34517 0.5
59 1 0.799816 0.344429 0.5
12 1 0.0394248 0.366079 0.5
67 1 0.45604 0.360529 0.5
61 1 0.0484282 0.376309 0.5
74 1 0.0261128 0.390881 0.5
66 1 0.0626635 0.387116 0.5
84 1 0.136019 0.38283 0.5
97 1 0.157396 0.397927 0.5
33 1 0.494915 0.394783 0.5
31 1 0.802631 0.404598 0.5
87 1 0.228539 0.416748 0.5
73 1 0.286438 0.409166 0.5
68 1 0.708789 0.430345 0.5
56 1 0.248356 0.450885 0.5
88 1 0.595898 0.452916 0.5
95 1 0.626198 0.451659 0.5
1 1 0.863187 0.473219 0.5
36 1 0.17266 0.489507 0.5
98 1 0.088169 0.494499 0.5
4 1 0.0834764 0.517793 0.5
69 1 0.506286 0.532823 0.5
83 1 0.369814 0.538052 0.5
24 1 0.419162 0.541325 0.5
49 1 0.66438 0.542096 0.5
41 1 0.753273 0.556465 0.5
45 1 0.133325 0.604599 0.5
48 1 0.887723 0.596144 0.5
40 1 0.0623831 0.610083 0.5
35 1 0.902623 0.61656 0.5
44 1 0.0891241 0.636375 0.5
75 1 0.158576 0.66037 0.5
78 1 0.0126952 0.664652 0.5
27 1 0.678452 0.674404 0.5
42 1 0.875685 0.66905 0.5
82 1 0.109619 0.685502 0.5
81 1 0.344666 0.687524 0.5
90 1 0.660224 0.699735 0.5
53 1 0.176427 0.730235 0.5
63 1 0.251569 0.719413 0.5
26 1 0.620018 0.724297 0.5
9 1 0.862418 0.745239 0.5
60 1 0.98041 0.73994 0.5
58 1 0.0348013 0.806708 0.5
86 1 0.0830089 0.816113 0.5
28 1 0.808753 0.8415 0.5
13 1 0.0430118 0.856105 0.5
6 1 0.705699 0.856983 0.5
23 1 0.236306 0.864197 0.5
37 1 0.338975 0.86477 0.5
14 1 0.576029 0.883084 0.5
64 1 0.838446 0.882598 0.5
92 1 0.894501 0.884519 0.5
3 1 0.490029 0.899418 0.5
99 1 0.525937 0.894534 0.5
96 1 0.637135 0.898526 0.5
2 1 0.583565 0.902244 0.5
100 1 0.867311 0.91384 0.5
77 1 0.154221 0.947701 0.5
20 1 0.864141 0.968495 0.5
10 1 0.890384 0.966982 0.5
25 1 0.157125 0.980408 0.5
65 1 0.0589321 0.989357 0.5
30 1 0.255703 0.998601 0.5
19 1 0.363031 0.994038 0.5
85 1 0.978908 0.999328 0.5
ITEM: TIMESTEP
7000
ITEM: NUMBER OF ATOMS
100
ITEM: BOX BOUNDS pp pp pp
-5.0000000000000000e+01 5.0000000000000000e+01
-5.0000000000000000e+01 5.0000000000000000e+01
-1.0000000000000000e+00 1.0000000000000000e+00
ITEM: ATOMS id type xs ys zs
89 1 0.997381 0.00957556 0.5
39 1 0.283469 0.0150411 0.5
16 1 0.361325 0.0211802 0.5
54 1 0.42408 0.0100499 0.5
80 1 0.433595 0.0311435 0.5
22 1 0.118689 0.0752394 0.5
43 1 0.147696 0.0707849 0.5
70 1 0.664691 0.0860712 0.5
7 1 0.0739677 0.0825386 0.5
8 1 0.391422 0.144185 0.5
34 1 0.593995 0.1393 0.5
29 1 0.697717 0.144814 0.5
51 1 0.723315 0.143921 0.5
38 1 0.589615 0.161219 0.5
93 1 0.389311 0.176981 0.5
94 1 0.205573 0.220725 0.5
46 1 0.893105 0.196414 0.5
21 1 0.0319483 0.205716 0.5
5 1 0.601704 0.208918 0.5
71 1 0.73567 0.223099 0.5
91 1 0.136313 0.223719 0.5
62 1 0.370736 0.266447 0.5
72 1 0.226305 0.26769 0.5
57 1 0.603037 0.23943 0.5
18 1 0.354901 0.268333 0.5
50 1 0.779522 0.277491 0.5
55 1 0.913709 0.282532 0.5
52 1 0.0418077 0.29684 0.5
47 1 0.353608 0.280017 0.5
32 1 0.281413 0.277445 0.5
79 1 0.167683 0.346354 0.5
17 1 0.0400148 0.366192 0.5
11 1 0.201665 0.343976 0.5
76 1 0.280633 0.349381 0.5
15 1 0.384032 0.320144 0.5
59 1 0.813947 0.330158 0.5
12 1 0.00922976 0.365314 0.5
67 1 0.460342 0.354567 0.5
61 1 0.0411203 0.387222 0.5
74 1 0.0338762 0.397886 0.5
66 1 0.0529338 0.387293 0.5
84 1 0.126388 0.384618 0.5
97 1 0.160818 0.40214 0.5
33 1 0.499716 0.409432 0.5
31 1 0.802205 0.395682 0.5
87 1 0.22671 0.409967 0.5
73 1 0.270479 0.411499 0.5
68 1 0.715607 0.427737 0.5
56 1 0.255388 0.454441 0.5
88 1 0.600506 0.454586 0.5
95 1 0.630818 0.458681 0.5
1 1 0.873145 0.468166 0.5
36 1 0.194399 0.484434 0.5
98 1 0.0814685 0.50861 0.5
4 1 0.0766042 0.518797 0.5
69 1 0.523862 0.524308 0.5
83 1 0.374503 0.558246 0.5
24 1 0.419 0.538781 0.5
49 1 0.666884 0.559802 0.5
41 1 0.755841 0.566823 0.5
45 1 0.136824 0.615704 0.5
48 1 0.881748 0.588957 0.5
40 1 0.0533241 0.619624 0.5
35 1 0.895919 0.611381 0.5
44 1 0.110388 0.634841 0.5
75 1 0.168796 0.65562 0.5
78 1 0.0105736 0.664454 0.5
27 1 0.675924 0.673378 0.5
42 1 0.872994 0.66368 0.5
82 1 0.120251 0.694543 0.5
81 1 0.325289 0.690536 0.5
90 1 0.661849 0.698477 0.5
53 1 0.181336 0.726071 0.5
63 1 0.257971 0.725528 0.5
26 1 0.589826 0.724185 0.5
9 1 0.854412 0.751645 0.5
60 1 0.988453 0.730877 0.5
58 1 0.0490455 0.81031 0.5
86 1 0.100075 0.831835 0.5
28 1 0.823249 0.844056 0.5
13 1 0.0449326 0.858907 0.5
6 1 0.711206 0.863128 0.5
23 1 0.211882 0.864099 0.5
37 1 0.341234 0.86681 0.5
14 1 0.576315 0.880493 0.5
64 1 0.82588 0.890253 0.5
92 1 0.898208 0.872058 0.5
3 1 0.487961 0.909654 0.5
99 1 0.528674 0.903153 0.5
96 1 0.66851 0.8953 0.5
2 1 0.572563 0.891976 0.5
100 1 0.867937 0.896256 0.5
77 1 0.150845 0.946092 0.5
20 1 0.870946 0.965854 0.5
10 1 0.884076 0.972055 0.5
25 1 0.148203 0.988228 0.5
65 1 0.060947 0.983376 0.5
30 1 0.254126 0.975605 0.5
19 1 0.361272 0.986858 0.5
85 1 0.989136 0.984887 0.5
ITEM: TIMESTEP
8000
ITEM: NUMBER OF ATOMS
100
ITEM: BOX BOUNDS pp pp pp
-5.0000000000000000e+01 5.0000000000000000e+01
-5.0000000000000000e+01 5.0000000000000000e+01
-1.0000000000000000e+00 1.0000000000000000e+00
ITEM: ATOMS id type xs ys zs
54 1 0.423192 0.995698 0.5
89 1 0.994026 0.0168281 0.5
39 1 0.278624 0.0167065 0.5
16 1 0.348069 0.0235649 0.5
80 1 0.425061 0.0292848 0.5
7 1 0.0826088 0.066282 0.5
22 1 0.115354 0.0685824 0.5
43 1 0.152587 0.0820588 0.5
70 1 0.673116 0.0794389 0.5
34 1 0.593559 0.145369 0.5
8 1 0.387291 0.144619 0.5
29 1 0.692337 0.14529 0.5
51 1 0.71174 0.153156 0.5
38 1 0.600916 0.153826 0.5
93 1 0.397238 0.191353 0.5
46 1 0.88957 0.192527 0.5
21 1 0.0252979 0.203597 0.5
5 1 0.594117 0.216121 0.5
91 1 0.152436 0.22501 0.5
94 1 0.194127 0.213434 0.5
71 1 0.750663 0.225312 0.5
57 1 0.59915 0.230716 0.5
62 1 0.366327 0.251062 0.5
72 1 0.220676 0.254282 0.5
32 1 0.28046 0.283941 0.5
18 1 0.358772 0.277328 0.5
47 1 0.344159 0.280181 0.5
50 1 0.788896 0.278823 0.5
55 1 0.919848 0.273891 0.5
52 1 0.03263 0.296534 0.5
15 1 0.365624 0.335649 0.5
59 1 0.797988 0.320205 0.5
79 1 0.177852 0.336195 0.5
11 1 0.20702 0.343217 0.5
76 1 0.270457 0.372182 0.5
12 1 0.011575 0.363079 0.5
17 1 0.0557444 0.363085 0.5
67 1 0.456213 0.34951 0.5
61 1 0.0539859 0.400114 0.5
66 1 0.0531439 0.386644 0.5
84 1 0.129654 0.382698 0.5
74 1 0.03999 0.401139 0.5
97 1 0.171966 0.423148 0.5
31 1 0.798232 0.392093 0.5
87 1 0.220619 0.405365 0.5
73 1 0.276169 0.395252 0.5
33 1 0.502315 0.412284 0.5
68 1 0.71975 0.439784 0.5
56 1 0.241064 0.458204 0.5
88 1 0.597462 0.466052 0.5
95 1 0.633786 0.464739 0.5
1 1 0.872522 0.457183 0.5
36 1 0.183225 0.482164 0.5
98 1 0.0881566 0.502757 0.5
4 1 0.0753309 0.515282 0.5
69 1 0.528058 0.520269 0.5
24 1 0.421676 0.528917 0.5
83 1 0.370211 0.559225 0.5
49 1 0.65985 0.557475 0.5
41 1 0.745865 0.571386 0.5
48 1 0.892018 0.591921 0.5
40 1 0.0578084 0.622031 0.5
45 1 0.120246 0.612544 0.5
35 1 0.896875 0.608768 0.5
44 1 0.119897 0.635826 0.5
75 1 0.173724 0.655986 0.5
78 1 0.015712 0.672055 0.5
27 1 0.68829 0.684286 0.5
42 1 0.883458 0.671727 0.5
82 1 0.138475 0.699611 0.5
81 1 0.319207 0.712403 0.5
90 1 0.665075 0.689091 0.5
53 1 0.169685 0.737654 0.5
63 1 0.251313 0.737211 0.5
26 1 0.596123 0.718228 0.5
60 1 0.980107 0.739117 0.5
9 1 0.863178 0.740857 0.5
58 1 0.046213 0.808178 0.5
86 1 0.0950417 0.819999 0.5
28 1 0.828755 0.828346 0.5
13 1 0.0431133 0.84945 0.5
23 1 0.214962 0.847983 0.5
37 1 0.326524 0.870829 0.5
6 1 0.709166 0.870658 0.5
92 1 0.881069 0.857263 0.5
14 1 0.574156 0.886285 0.5
2 1 0.565093 0.891602 0.5
96 1 0.68477 0.891693 0.5
64 1 0.818793 0.885062 0.5
100 1 0.858609 0.895637 0.5
3 1 0.48601 0.930779 0.5
99 1 0.553772 0.908192 0.5
77 1 0.159551 0.943437 0.5
20 1 0.878734 0.962571 0.5
65 1 0.0722569 0.988407 0.5
30 1 0.244304 0.969571 0.5
10 1 0.885285 0.970204 0.5
85 1 0.984616 0.97893 0.5
25 1 0.160201 0.985486 0.5
19 1 0.351999 0.992848 0.5
ITEM: TIMESTEP
9000
ITEM: NUMBER OF ATOMS
100
ITEM: BOX BOUNDS pp pp pp
-5.0000000000000000e+01 5.0000000000000000e+01
-5.0000000000000000e+01 5.0000000000000000e+01
-1.0000000000000000e+00 1.0000000000000000e+00
ITEM: ATOMS id type xs ys zs
39 1 0.276653 0.0151934 0.5
16 1 0.351303 0.0305695 0.5
89 1 0.0103178 0.997372 0.5
80 1 0.43015 0.0182668 0.5
7 1 0.0791692 0.0690279 0.5
22 1 0.11627 0.0642102 0.5
43 1 0.129135 0.0990376 0.5
70 1 0.674485 0.0686694 0.5
8 1 0.374216 0.160948 0.5
34 1 0.59842 0.143923 0.5
38 1 0.593892 0.15592 0.5
29 1 0.692125 0.156008 0.5
51 1 0.727028 0.151921 0.5
93 1 0.399989 0.196888 0.5
46 1 0.899541 0.194535 0.5
21 1 0.0192455 0.204138 0.5
91 1 0.15159 0.226398 0.5
94 1 0.191136 0.223133 0.5
5 1 0.60194 0.214317 0.5
57 1 0.59108 0.228325 0.5
71 1 0.759763 0.214757 0.5
62 1 0.368673 0.244028 0.5
72 1 0.216395 0.243904 0.5
47 1 0.330431 0.282715 0.5
18 1 0.365502 0.290031 0.5
50 1 0.793557 0.268286 0.5
55 1 0.916693 0.282787 0.5
32 1 0.293587 0.291248 0.5
52 1 0.0240892 0.290399 0.5
59 1 0.788654 0.313512 0.5
79 1 0.177216 0.344203 0.5
15 1 0.355429 0.351019 0.5
11 1 0.214498 0.341693 0.5
67 1 0.465994 0.335102 0.5
12 1 0.994 0.350766 0.5
17 1 0.0585978 0.368496 0.5
76 1 0.260469 0.360639 0.5
66 1 0.0422335 0.385159 0.5
84 1 0.126808 0.398725 0.5
31 1 0.796865 0.398111 0.5
74 1 0.0400622 0.404925 0.5
61 1 0.0520458 0.412303 0.5
87 1 0.214411 0.404157 0.5
73 1 0.278688 0.396607 0.5
33 1 0.497487 0.416262 0.5
97 1 0.170955 0.418084 0.5
68 1 0.724436 0.439107 0.5
56 1 0.252258 0.471589 0.5
95 1 0.627407 0.47791 0.5
1 1 0.869031 0.479678 0.5
88 1 0.607668 0.466493 0.5
36 1 0.189863 0.47116 0.5
98 1 0.0896933 0.503386 0.5
4 1 0.0704563 0.517853 0.5
69 1 0.517411 0.517371 0.5
24 1 0.422138 0.545778 0.5
83 1 0.393709 0.562517 0.5
49 1 0.662477 0.55979 0.5
41 1 0.765969 0.570663 0.5
48 1 0.881886 0.584443 0.5
45 1 0.100582 0.620281 0.5
35 1 0.893247 0.592888 0.5
40 1 0.0601336 0.608567 0.5
44 1 0.106092 0.628811 0.5
75 1 0.163948 0.649942 0.5
78 1 0.0262269 0.675945 0.5
42 1 0.866399 0.666745 0.5
90 1 0.681195 0.683794 0.5
27 1 0.70189 0.696082 0.5
82 1 0.131846 0.702086 0.5
81 1 0.297771 0.70956 0.5
26 1 0.598616 0.727729 0.5
53 1 0.183953 0.730582 0.5
63 1 0.267139 0.72632 0.5
9 1 0.873827 0.749843 0.5
60 1 0.979209 0.733041 0.5
58 1 0.058096 0.784899 0.5
86 1 0.0954241 0.814503 0.5
28 1 0.824885 0.825575 0.5
13 1 0.0327095 0.860952 0.5
23 1 0.216609 0.858103 0.5
92 1 0.891644 0.870942 0.5
37 1 0.322317 0.883843 0.5
6 1 0.705488 0.850965 0.5
14 1 0.57683 0.875995 0.5
64 1 0.811421 0.87771 0.5
2 1 0.543089 0.891056 0.5
96 1 0.683701 0.878625 0.5
100 1 0.855726 0.883362 0.5
99 1 0.551246 0.902843 0.5
77 1 0.161069 0.950151 0.5
3 1 0.481803 0.923316 0.5
30 1 0.242515 0.966433 0.5
20 1 0.887953 0.970908 0.5
10 1 0.913653 0.98324 0.5
25 1 0.152405 0.983939 0.5
85 1 0.988682 0.983456 0.5
65 1 0.0721234 0.98947 0.5
19 1 0.354441 0.00186307 0.5
54 1 0.431443 0.974017 0.5
ITEM: TIMESTEP
10000
ITEM: NUMBER OF ATOMS
100
ITEM: BOX BOUNDS pp pp pp
-5.0000000000000000e+01 5.0000000000000000e+01
-5.0000000000000000e+01 5.0000000000000000e+01
-1.0000000000000000e+00 1.0000000000000000e+00
ITEM: ATOMS id type xs ys zs
19 1 0.358823 0.00659628 0.5
39 1 0.274921 0.00931213 0.5
80 1 0.428304 0.0324222 0.5
16 1 0.362445 0.0311964 0.5
7 1 0.0712019 0.0877107 0.5
22 1 0.115629 0.0622331 0.5
70 1 0.653907 0.0658552 0.5
43 1 0.137054 0.12349 0.5
34 1 0.601907 0.147437 0.5
51 1 0.729721 0.165714 0.5
8 1 0.364068 0.155548 0.5
38 1 0.592119 0.159419 0.5
29 1 0.696247 0.160676 0.5